ITEM: TIMESTEP
0
ITEM: NUMBER OF ATOMS
320
ITEM: BOX BOUNDS pp pp pp
-1.8000000000000000e+00 1.2600000000000000e+01
-1.8000000000000000e+00 1.2600000000000000e+01
-1.8000000000000000e+00 1.2600000000000000e+01
ITEM: ATOMS id type x y z vx vy vz ix iy iz
    1   1    0.03989900    0.23186000    0.04911600   -0.00485437    0.00284999    0.00736705   0   0   0
    2   2    0.33896500   -0.53155100    0.54307400   -0.01293653   -0.00932745   -0.00655984   0   0   0
    3   2   -0.45369200   -0.13514900   -0.68430300   -0.00212407    0.02123690   -0.00367141   0   0   0
    4   3    0.00000000    0.00000000    0.00000000   -0.00595209    0.00412362    0.00224642   0   0   0
    5   4   -0.00486500    0.19057900    0.03984000    0.00000000    0.00000000    0.00000000   0   0   0
    6   1    3.63989900    0.23186000    0.04911600   -0.00382505   -0.00163482   -0.00500603   0   0   0
    7   2    3.93896500   -0.53155100    0.54307400   -0.02672112   -0.00856804   -0.00185892   0   0   0
    8   2    3.14630800   -0.13514900   -0.68430300   -0.01087523    0.01001473   -0.00609079   0   0   0
    9   3    3.60000000    0.00000000    0.00000000   -0.00996732   -0.00066746   -0.00458302   0   0   0
   10   4    3.59513500    0.19057900    0.03984000    0.00000000    0.00000000    0.00000000   0   0   0
   11   1    7.23989900    0.23186000    0.04911600    0.00597158    0.00079888    0.00683768   0   0   0
   12   2    7.53896500   -0.53155100    0.54307400    0.02875550   -0.00560885   -0.01685993   0   0   0
   13   2    6.74630800   -0.13514900   -0.68430300    0.02255608    0.00864839   -0.00825165   0   0   0
   14   3    7.20000000    0.00000000    0.00000000    0.01404643    0.00109460   -0.00111789   0   0   0
   15   4    7.19513500    0.19057900    0.03984000    0.00000000    0.00000000    0.00000000   0   0   0
   16   1   10.83989900    0.23186000    0.04911600   -0.00218276    0.00030108    0.00357401   0   0   0
   17   2   11.13896500   -0.53155100    0.54307400    0.01052425    0.00320303    0.00036553   0   0   0
   18   2   10.34630800   -0.13514900   -0.68430300    0.00040035   -0.00471592    0.00434612   0   0   0
   19   3   10.80000000    0.00000000    0.00000000    0.00095339   -0.00013273    0.00307428   0   0   0
   20   4   10.79513500    0.19057900    0.03984000    0.00000000    0.00000000    0.00000000   0   0   0
   21   1    0.03989900    3.83186000    0.04911600    0.00555476   -0.00434027    0.00080774   0   0   0
   22   2    0.33896500    3.06844900    0.54307400    0.00601575   -0.00982637   -0.00795013   0   0   0
   23   2   -0.45369200    3.46485100   -0.68430300    0.01168036    0.00358054   -0.00727842   0   0   0
   24   3    0.00000000    3.60000000    0.00000000    0.00690574   -0.00384088   -0.00264713   0   0   0
   25   4   -0.00486500    3.79057900    0.03984000    0.00000000    0.00000000    0.00000000   0   0   0
   26   1    3.63989900    3.83186000    0.04911600    0.00304903   -0.00084162   -0.00023454   0   0   0
   27   2    3.93896500    3.06844900    0.54307400    0.01528958   -0.00589524   -0.01545591   0   0   0
   28   2    3.14630800    3.46485100   -0.68430300   -0.00795021    0.00642497    0.00353168   0   0   0
   29   3    3.60000000    3.60000000    0.00000000    0.00330363   -0.00038772   -0.00258410   0   0   0
   30   4    3.59513500    3.79057900    0.03984000    0.00000000    0.00000000    0.00000000   0   0   0
   31   1    7.23989900    3.83186000    0.04911600    0.00456348    0.00000134   -0.00230642   0   0   0
   32   2    7.53896500    3.06844900    0.54307400   -0.00860014   -0.00017806    0.00538620   0   0   0
   33   2    6.74630800    3.46485100   -0.68430300   -0.01918891    0.00169732    0.01283026   0   0   0
   34   3    7.20000000    3.60000000    0.00000000   -0.00300835    0.00031240    0.00237609   0   0   0
   35   4    7.19513500    3.79057900    0.03984000    0.00000000    0.00000000    0.00000000   0   0   0
   36   1   10.83989900    3.83186000    0.04911600   -0.00516540    0.00347655   -0.00536264   0   0   0
   37   2   11.13896500    3.06844900    0.54307400    0.00590713    0.01680704    0.00853575   0   0   0
   38   2   10.34630800    3.46485100   -0.68430300    0.01579521   -0.01755119   -0.00894668   0   0   0
   39   3   10.80000000    3.60000000    0.00000000    0.00140491    0.00189777   -0.00324707   0   0   0
   40   4   10.79513500    3.79057900    0.03984000    0.00000000    0.00000000    0.00000000   0   0   0
   41   1    0.03989900    7.43186000    0.04911600   -0.00273809    0.00552645   -0.00613865   0   0   0
   42   2    0.33896500    6.66844900    0.54307400   -0.00935494    0.00842723    0.00235065   0   0   0
   43   2   -0.45369200    7.06485100   -0.68430300   -0.00039366    0.00146642   -0.00568478   0   0   0
   44   3    0.00000000    7.20000000    0.00000000   -0.00361441    0.00528867   -0.00430432   0   0   0
   45   4   -0.00486500    7.39057900    0.03984000    0.00000000    0.00000000    0.00000000   0   0   0
   46   1    3.63989900    7.43186000    0.04911600    0.00117616   -0.00103149   -0.00060538   0   0   0
   47   2    3.93896500    6.66844900    0.54307400    0.00872381    0.00747412    0.00797032   0   0   0
   48   2    3.14630800    7.06485100   -0.68430300   -0.00734755   -0.01374904    0.01149504   0   0   0
   49   3    3.60000000    7.20000000    0.00000000    0.00097596   -0.00189541    0.00363549   0   0   0
   50   4    3.59513500    7.39057900    0.03984000    0.00000000    0.00000000    0.00000000   0   0   0
   51   1    7.23989900    7.43186000    0.04911600   -0.00097990    0.00212105    0.00423414   0   0   0
   52   2    7.53896500    6.66844900    0.54307400   -0.02479160   -0.01391294   -0.00612961   0   0   0
   53   2    6.74630800    7.06485100   -0.68430300   -0.00207015    0.02713136   -0.00754749   0   0   0
   54   3    7.20000000    7.20000000    0.00000000   -0.00608753    0.00396219   -0.00030809   0   0   0
   55   4    7.19513500    7.39057900    0.03984000    0.00000000    0.00000000    0.00000000   0   0   0
   56   1   10.83989900    7.43186000    0.04911600   -0.00371346   -0.00399219   -0.00210005   0   0   0
   57   2   11.13896500    6.66844900    0.54307400    0.00161350   -0.01032810   -0.01511739   0   0   0
   58   2   10.34630800    7.06485100   -0.68430300   -0.00704072    0.00526396   -0.00449265   0   0   0
   59   3   10.80000000    7.20000000    0.00000000   -0.00330330   -0.00339322   -0.00526078   0   0   0
   60   4   10.79513500    7.39057900    0.03984000    0.00000000    0.00000000    0.00000000   0   0   0
   61   1    0.03989900   11.03186000    0.04911600    0.00585822    0.00271241   -0.00028007   0   0   0
   62   2    0.33896500   10.26844900    0.54307400    0.00683491   -0.00019236   -0.00536074   0   0   0
   63   2   -0.45369200   10.66485100   -0.68430300   -0.00425496    0.00731141    0.00422472   0   0   0
   64   3    0.00000000   10.80000000    0.00000000    0.00398424    0.00305992   -0.00039819   0   0   0
   65   4   -0.00486500   10.99057900    0.03984000    0.00000000    0.00000000    0.00000000   0   0   0
   66   1    3.63989900   11.03186000    0.04911600   -0.00110010    0.00287395   -0.00476128   0   0   0
   67   2    3.93896500   10.26844900    0.54307400    0.00525037    0.01102695    0.00399428   0   0   0
   68   2    3.14630800   10.66485100   -0.68430300    0.01584040   -0.01010213   -0.00966890   0   0   0
   69   3    3.60000000   10.80000000    0.00000000    0.00367710    0.00188469   -0.00397203   0   0   0
   70   4    3.59513500   10.99057900    0.03984000    0.00000000    0.00000000    0.00000000   0   0   0
   71   1    7.23989900   11.03186000    0.04911600    0.00190443   -0.00550633   -0.00165576   0   0   0
   72   2    7.53896500   10.26844900    0.54307400    0.00989308   -0.00134258   -0.00005742   0   0   0
   73   2    6.74630800   10.66485100   -0.68430300    0.01693111   -0.01257636   -0.00823081   0   0   0
   74   3    7.20000000   10.80000000    0.00000000    0.00662510   -0.00610244   -0.00267653   0   0   0
   75   4    7.19513500   10.99057900    0.03984000    0.00000000    0.00000000    0.00000000   0   0   0
   76   1   10.83989900   11.03186000    0.04911600   -0.00765282    0.00023212    0.00426458   0   0   0
   77   2   11.13896500   10.26844900    0.54307400    0.00948310    0.00733768    0.00487130   0   0   0
   78   2   10.34630800   10.66485100   -0.68430300   -0.00230036   -0.01133489    0.00645060   0   0   0
   79   3   10.80000000   10.80000000    0.00000000   -0.00304024   -0.00068297    0.00483740   0   0   0
   80   4   10.79513500   10.99057900    0.03984000    0.00000000    0.00000000    0.00000000   0   0   0
   81   1    0.03989900    0.23186000    3.64911600   -0.00553532   -0.00035495    0.00094809   0   0   0
   82   2    0.33896500   -0.53155100    4.14307400   -0.00947375    0.00012195    0.00406965   0   0   0
   83   2   -0.45369200   -0.13514900    2.91569700   -0.01317651   -0.00061766    0.00622207   0   0   0
   84   3    0.00000000    0.00000000    3.60000000   -0.00791041   -0.00031102    0.00267010   0   0   0
   85   4   -0.00486500    0.19057900    3.63984000    0.00000000    0.00000000    0.00000000   0   0   0
   86   1    3.63989900    0.23186000    3.64911600    0.00387048   -0.00134631   -0.00003997   0   0   0
   87   2    3.93896500   -0.53155100    4.14307400    0.02053095    0.00511010   -0.00014866   0   0   0
   88   2    3.14630800   -0.13514900    2.91569700    0.01112391   -0.01198892    0.00040412   0   0   0
   89   3    3.60000000    0.00000000    3.60000000    0.00877545   -0.00220494    0.00002882   0   0   0
   90   4    3.59513500    0.19057900    3.63984000    0.00000000    0.00000000    0.00000000   0   0   0
   91   1    7.23989900    0.23186000    3.64911600   -0.00118855    0.00153888    0.00322298   0   0   0
   92   2    7.53896500   -0.53155100    4.14307400   -0.00229212   -0.00334221   -0.00365258   0   0   0
   93   2    6.74630800   -0.13514900    2.91569700    0.00166445    0.00874613   -0.00230365   0   0   0
   94   3    7.20000000    0.00000000    3.60000000   -0.00082973    0.00201600    0.00067917   0   0   0
   95   4    7.19513500    0.19057900    3.63984000    0.00000000    0.00000000    0.00000000   0   0   0
   96   1   10.83989900    0.23186000    3.64911600    0.00006253   -0.00012153   -0.00616700   0   0   0
   97   2   11.13896500   -0.53155100    4.14307400    0.01086759    0.00406960   -0.00623153   0   0   0
   98   2   10.34630800   -0.13514900    2.91569700   -0.01883540   -0.00625016    0.00961813   0   0   0
   99   3   10.80000000    0.00000000    3.60000000   -0.00159740   -0.00051893   -0.00294255   0   0   0
  100   4   10.79513500    0.19057900    3.63984000    0.00000000    0.00000000    0.00000000   0   0   0
  101   1    0.03989900    3.83186000    3.64911600   -0.00455578   -0.00457915   -0.00275071   0   0   0
  102   2    0.33896500    3.06844900    4.14307400    0.00196755    0.00859491    0.01366024   0   0   0
  103   2   -0.45369200    3.46485100    2.91569700   -0.00068089   -0.02458748    0.00465382   0   0   0
  104   3    0.00000000    3.60000000    3.60000000   -0.00242300   -0.00598093    0.00213407   0   0   0
  105   4   -0.00486500    3.79057900    3.63984000    0.00000000    0.00000000    0.00000000   0   0   0
  106   1    3.63989900    3.83186000    3.64911600   -0.00085121    0.00625530   -0.00588906   0   0   0
  107   2    3.93896500    3.06844900    4.14307400   -0.01950845    0.00145090   -0.00201826   0   0   0
  108   2    3.14630800    3.46485100    2.91569700   -0.00902017    0.01457316   -0.00455368   0   0   0
  109   3    3.60000000    3.60000000    3.60000000   -0.00635352    0.00697594   -0.00482123   0   0   0
  110   4    3.59513500    3.79057900    3.63984000    0.00000000    0.00000000    0.00000000   0   0   0
  111   1    7.23989900    3.83186000    3.64911600   -0.00097900    0.00039205    0.00437371   0   0   0
  112   2    7.53896500    3.06844900    4.14307400    0.00638978    0.01356581    0.02027233   0   0   0
  113   2    6.74630800    3.46485100    2.91569700    0.02143032   -0.02026926   -0.00036866   0   0   0
  114   3    7.20000000    3.60000000    3.60000000    0.00512878   -0.00114373    0.00666196   0   0   0
  115   4    7.19513500    3.79057900    3.63984000    0.00000000    0.00000000    0.00000000   0   0   0
  116   1   10.83989900    3.83186000    3.64911600    0.00725807   -0.00327397   -0.00165215   0   0   0
  117   2   11.13896500    3.06844900    4.14307400    0.00958229   -0.01295695   -0.01802436   0   0   0
  118   2   10.34630800    3.46485100    2.91569700   -0.00729970    0.01146984    0.00076730   0   0   0
  119   3   10.80000000    3.60000000    3.60000000    0.00474885   -0.00223594   -0.00451399   0   0   0
  120   4   10.79513500    3.79057900    3.63984000    0.00000000    0.00000000    0.00000000   0   0   0
  121   1    0.03989900    7.43186000    3.64911600    0.00789353    0.00031729   -0.00293161   0   0   0
  122   2    0.33896500    6.66844900    4.14307400   -0.00544043   -0.00150327    0.00232773   0   0   0
  123   2   -0.45369200    7.06485100    2.91569700   -0.01649218    0.00447929    0.01139727   0   0   0
  124   3    0.00000000    7.20000000    3.60000000    0.00015686    0.00079754    0.00108612   0   0   0
  125   4   -0.00486500    7.39057900    3.63984000    0.00000000    0.00000000    0.00000000   0   0   0
  126   1    3.63989900    7.43186000    3.64911600   -0.00243042   -0.00283848   -0.00239706   0   0   0
  127   2    3.93896500    6.66844900    4.14307400    0.02116360    0.00207962   -0.00908111   0   0   0
  128   2    3.14630800    7.06485100    2.91569700   -0.01160710   -0.01099447    0.00786016   0   0   0
  129   3    3.60000000    7.20000000    3.60000000    0.00052671   -0.00350261   -0.00166417   0   0   0
  130   4    3.59513500    7.39057900    3.63984000    0.00000000    0.00000000    0.00000000   0   0   0
  131   1    7.23989900    7.43186000    3.64911600   -0.00584485    0.00361616    0.00324651   0   0   0
  132   2    7.53896500    6.66844900    4.14307400   -0.01963985   -0.00805062   -0.00643232   0   0   0
  133   2    6.74630800    7.06485100    2.91569700   -0.00692870    0.02165086   -0.00504877   0   0   0
  134   3    7.20000000    7.20000000    3.60000000   -0.00889664    0.00492229   -0.00044015   0   0   0
  135   4    7.19513500    7.39057900    3.63984000    0.00000000    0.00000000    0.00000000   0   0   0
  136   1   10.83989900    7.43186000    3.64911600   -0.00422333    0.00046150   -0.00319926   0   0   0
  137   2   11.13896500    6.66844900    4.14307400    0.01782451    0.00117598   -0.01544385   0   0   0
  138   2   10.34630800    7.06485100    2.91569700   -0.00015137   -0.00181468   -0.00480067   0   0   0
  139   3   10.80000000    7.20000000    3.60000000    0.00113409    0.00014118   -0.00603921   0   0   0
  140   4   10.79513500    7.39057900    3.63984000    0.00000000    0.00000000    0.00000000   0   0   0
  141   1    0.03989900   11.03186000    3.64911600    0.00347002    0.00252868    0.00331606   0   0   0
  142   2    0.33896500   10.26844900    4.14307400   -0.00972911    0.00266282    0.01151475   0   0   0
  143   2   -0.45369200   10.66485100    2.91569700    0.01612600    0.00255872   -0.00521645   0   0   0
  144   3    0.00000000   10.80000000    3.60000000    0.00335862    0.00256236    0.00324759   0   0   0
  145   4   -0.00486500   10.99057900    3.63984000    0.00000000    0.00000000    0.00000000   0   0   0
  146   1    3.63989900   11.03186000    3.64911600   -0.00026421    0.00345965   -0.00119895   0   0   0
  147   2    3.93896500   10.26844900    4.14307400    0.01182834    0.01373158    0.00735489   0   0   0
  148   2    3.14630800   10.66485100    2.91569700    0.00806273   -0.01265969    0.00126327   0   0   0
  149   3    3.60000000   10.80000000    3.60000000    0.00392403    0.00226028    0.00106055   0   0   0
  150   4    3.59513500   10.99057900    3.63984000    0.00000000    0.00000000    0.00000000   0   0   0
  151   1    7.23989900   11.03186000    3.64911600    0.00625655    0.00112253   -0.00616210   0   0   0
  152   2    7.53896500   10.26844900    4.14307400   -0.00306556   -0.00572060   -0.01109409   0   0   0
  153   2    6.74630800   10.66485100    2.91569700   -0.00682490    0.01217201   -0.00288754   0   0   0
  154   3    7.20000000   10.80000000    3.60000000    0.00166136    0.00198530   -0.00650206   0   0   0
  155   4    7.19513500   10.99057900    3.63984000    0.00000000    0.00000000    0.00000000   0   0   0
  156   1   10.83989900   11.03186000    3.64911600   -0.00575739   -0.00390772    0.00159812   0   0   0
  157   2   11.13896500   10.26844900    4.14307400   -0.01490104   -0.00680187    0.00266123   0   0   0
  158   2   10.34630800   10.66485100    2.91569700   -0.00265794    0.00073537   -0.00281125   0   0   0
  159   3   10.80000000   10.80000000    3.60000000   -0.00699711   -0.00354899    0.00091177   0   0   0
  160   4   10.79513500   10.99057900    3.63984000    0.00000000    0.00000000    0.00000000   0   0   0
  161   1    0.03989900    0.23186000    7.24911600   -0.00174856    0.00520875    0.00629244   0   0   0
  162   2    0.33896500   -0.53155100    7.74307400    0.02424457    0.01699216    0.00876619   0   0   0
  163   2   -0.45369200   -0.13514900    6.51569700   -0.00106223   -0.01358400    0.01523459   0   0   0
  164   3    0.00000000    0.00000000    7.20000000    0.00372365    0.00377106    0.00863395   0   0   0
  165   4   -0.00486500    0.19057900    7.23984000    0.00000000    0.00000000    0.00000000   0   0   0
  166   1    3.63989900    0.23186000    7.24911600    0.00649712   -0.00136939   -0.00015500   0   0   0
  167   2    3.93896500   -0.53155100    7.74307400    0.00760903    0.00063782    0.00227394   0   0   0
  168   2    3.14630800   -0.13514900    6.51569700    0.00172223   -0.00424651    0.00449824   0   0   0
  169   3    3.60000000    0.00000000    7.20000000    0.00574581   -0.00154782    0.00129762   0   0   0
  170   4    3.59513500    0.19057900    7.23984000    0.00000000    0.00000000    0.00000000   0   0   0
  171   1    7.23989900    0.23186000    7.24911600   -0.00041552   -0.00098663   -0.00369917   0   0   0
  172   2    7.53896500   -0.53155100    7.74307400    0.01183427    0.00222468   -0.00615270   0   0   0
  173   2    6.74630800   -0.13514900    6.51569700   -0.00263154   -0.00628210    0.00044210   0   0   0
  174   3    7.20000000    0.00000000    7.20000000    0.00164250   -0.00141411   -0.00335300   0   0   0
  175   4    7.19513500    0.19057900    7.23984000    0.00000000    0.00000000    0.00000000   0   0   0
  176   1   10.83989900    0.23186000    7.24911600   -0.00140449   -0.00100134   -0.00210999   0   0   0
  177   2   11.13896500   -0.53155100    7.74307400   -0.02923326    0.00314098    0.02114083   0   0   0
  178   2   10.34630800   -0.13514900    6.51569700   -0.00419055   -0.00569549    0.00211402   0   0   0
  179   3   10.80000000    0.00000000    7.20000000   -0.00768388   -0.00111453    0.00352536   0   0   0
  180   4   10.79513500    0.19057900    7.23984000    0.00000000    0.00000000    0.00000000   0   0   0
  181   1    0.03989900    3.83186000    7.24911600   -0.00501317    0.00162435   -0.00264156   0   0   0
  182   2    0.33896500    3.06844900    7.74307400    0.01948404    0.01517104    0.00346303   0   0   0
  183   2   -0.45369200    3.46485100    6.51569700    0.01312621   -0.02028939   -0.00388354   0   0   0
  184   3    0.00000000    3.60000000    7.20000000    0.00373201   -0.00009181   -0.00164419   0   0   0
  185   4   -0.00486500    3.79057900    7.23984000    0.00000000    0.00000000    0.00000000   0   0   0
  186   1    3.63989900    3.83186000    7.24911600    0.00609046   -0.00432976    0.00534406   0   0   0
  187   2    3.93896500    3.06844900    7.74307400    0.01219774   -0.00785231   -0.00379767   0   0   0
  188   2    3.14630800    3.46485100    6.51569700    0.00727304    0.00056200    0.00210031   0   0   0
  189   3    3.60000000    3.60000000    7.20000000    0.00758568   -0.00404892    0.00280368   0   0   0
  190   4    3.59513500    3.79057900    7.23984000    0.00000000    0.00000000    0.00000000   0   0   0
  191   1    7.23989900    3.83186000    7.24911600   -0.00402485   -0.00366337    0.00813510   0   0   0
  192   2    7.53896500    3.06844900    7.74307400    0.01206256   -0.00517064   -0.00393448   0   0   0
  193   2    6.74630800    3.46485100    6.51569700    0.00803180   -0.00261218   -0.00050506   0   0   0
  194   3    7.20000000    3.60000000    7.20000000    0.00174777   -0.00375692    0.00388733   0   0   0
  195   4    7.19513500    3.79057900    7.23984000    0.00000000    0.00000000    0.00000000   0   0   0
  196   1   10.83989900    3.83186000    7.24911600    0.00416164    0.00331272    0.00762963   0   0   0
  197   2   11.13896500    3.06844900    7.74307400    0.01720153    0.00286042   -0.00096439   0   0   0
  198   2   10.34630800    3.46485100    6.51569700    0.00993865    0.00315428    0.00382099   0   0   0
  199   3   10.80000000    3.60000000    7.20000000    0.00802117    0.00318746    0.00508572   0   0   0
  200   4   10.79513500    3.79057900    7.23984000    0.00000000    0.00000000    0.00000000   0   0   0
  201   1    0.03989900    7.43186000    7.24911600    0.00339742   -0.00380568    0.00267921   0   0   0
  202   2    0.33896500    6.66844900    7.74307400   -0.00865701   -0.00447216    0.00894751   0   0   0
  203   2   -0.45369200    7.06485100    6.51569700    0.00089659   -0.00214258    0.00353004   0   0   0
  204   3    0.00000000    7.20000000    7.20000000    0.00041200   -0.00360127    0.00413941   0   0   0
  205   4   -0.00486500    7.39057900    7.23984000    0.00000000    0.00000000    0.00000000   0   0   0
  206   1    3.63989900    7.43186000    7.24911600    0.00585524    0.00771200    0.00018342   0   0   0
  207   2    3.93896500    6.66844900    7.74307400    0.01065213    0.00957861    0.00016401   0   0   0
  208   2    3.14630800    7.06485100    6.51569700   -0.02205232    0.00562676    0.02000867   0   0   0
  209   3    3.60000000    7.20000000    7.20000000    0.00111501    0.00766715    0.00424579   0   0   0
  210   4    3.59513500    7.39057900    7.23984000    0.00000000    0.00000000    0.00000000   0   0   0
  211   1    7.23989900    7.43186000    7.24911600   -0.00620002   -0.00038696    0.00767539   0   0   0
  212   2    7.53896500    6.66844900    7.74307400   -0.00939893   -0.00017807    0.00993499   0   0   0
  213   2    6.74630800    7.06485100    6.51569700    0.00656021   -0.00096160   -0.00062470   0   0   0
  214   3    7.20000000    7.20000000    7.20000000   -0.00423890   -0.00046198    0.00643643   0   0   0
  215   4    7.19513500    7.39057900    7.23984000    0.00000000    0.00000000    0.00000000   0   0   0
  216   1   10.83989900    7.43186000    7.24911600   -0.00334527   -0.00519831   -0.00152046   0   0   0
  217   2   11.13896500    6.66844900    7.74307400    0.00655941   -0.00064318   -0.00047728   0   0   0
  218   2   10.34630800    7.06485100    6.51569700   -0.00672768   -0.01233558    0.00432745   0   0   0
  219   3   10.80000000    7.20000000    7.20000000   -0.00200749   -0.00572794   -0.00010703   0   0   0
  220   4   10.79513500    7.39057900    7.23984000    0.00000000    0.00000000    0.00000000   0   0   0
  221   1    0.03989900   11.03186000    7.24911600   -0.00345416   -0.00522613   -0.00079713   0   0   0
  222   2    0.33896500   10.26844900    7.74307400    0.00207871   -0.01603534   -0.02085261   0   0   0
  223   2   -0.45369200   10.66485100    6.51569700   -0.00585339    0.01063115   -0.00711756   0   0   0
  224   3    0.00000000   10.80000000    7.20000000   -0.00281142   -0.00419072   -0.00620708   0   0   0
  225   4   -0.00486500   10.99057900    7.23984000    0.00000000    0.00000000    0.00000000   0   0   0
  226   1    3.63989900   11.03186000    7.24911600   -0.00437222    0.00523763   -0.00465420   0   0   0
  227   2    3.93896500   10.26844900    7.74307400    0.01295488    0.01296653   -0.00319986   0   0   0
  228   2    3.14630800   10.66485100    6.51569700   -0.01549170   -0.00672041    0.00881311   0   0   0
  229   3    3.60000000   10.80000000    7.20000000   -0.00309899    0.00437019   -0.00159363   0   0   0
  230   4    3.59513500   10.99057900    7.23984000    0.00000000    0.00000000    0.00000000   0   0   0
  231   1    7.23989900   11.03186000    7.24911600   -0.00354130    0.00307657   -0.00270131   0   0   0
  232   2    7.53896500   10.26844900    7.74307400   -0.00330991    0.00129793   -0.00559029   0   0   0
  233   2    6.74630800   10.66485100    6.51569700   -0.00299258    0.00568800   -0.00437738   0   0   0
  234   3    7.20000000   10.80000000    7.20000000   -0.00338129    0.00324738   -0.00363765   0   0   0
  235   4    7.19513500   10.99057900    7.23984000    0.00000000    0.00000000    0.00000000   0   0   0
  236   1   10.83989900   11.03186000    7.24911600   -0.00611509    0.00441612    0.00203057   0   0   0
  237   2   11.13896500   10.26844900    7.74307400    0.01921434    0.01166487   -0.00210217   0   0   0
  238   2   10.34630800   10.66485100    6.51569700    0.00843604   -0.00806889   -0.00151474   0   0   0
  239   3   10.80000000   10.80000000    7.20000000    0.00206480    0.00334211    0.00045573   0   0   0
  240   4   10.79513500   10.99057900    7.23984000    0.00000000    0.00000000    0.00000000   0   0   0
  241   1    0.03989900    0.23186000   10.84911600    0.00199723    0.00299655    0.00354792   0   0   0
  242   2    0.33896500   -0.53155100   11.34307400   -0.00870516    0.00781055    0.01746769   0   0   0
  243   2   -0.45369200   -0.13514900   10.11569700   -0.02344487   -0.00278645    0.02356432   0   0   0
  244   3    0.00000000    0.00000000   10.80000000   -0.00541636    0.00279779    0.01050856   0   0   0
  245   4   -0.00486500    0.19057900   10.83984000    0.00000000    0.00000000    0.00000000   0   0   0
  246   1    3.63989900    0.23186000   10.84911600    0.00498608    0.00320473   -0.00715830   0   0   0
  247   2    3.93896500   -0.53155100   11.34307400    0.01660701    0.01233951   -0.00007639   0   0   0
  248   2    3.14630800   -0.13514900   10.11569700    0.00412611   -0.01089972    0.00047845   0   0   0
  249   3    3.60000000    0.00000000   10.80000000    0.00719326    0.00218540   -0.00413936   0   0   0
  250   4    3.59513500    0.19057900   10.83984000    0.00000000    0.00000000    0.00000000   0   0   0
  251   1    7.23989900    0.23186000   10.84911600    0.00051856   -0.00372411   -0.00201229   0   0   0
  252   2    7.53896500   -0.53155100   11.34307400   -0.01085183   -0.00657833    0.00046068   0   0   0
  253   2    6.74630800   -0.13514900   10.11569700    0.00794459    0.00082603   -0.00928694   0   0   0
  254   3    7.20000000    0.00000000   10.80000000   -0.00029047   -0.00337626   -0.00299716   0   0   0
  255   4    7.19513500    0.19057900   10.83984000    0.00000000    0.00000000    0.00000000   0   0   0
  256   1   10.83989900    0.23186000   10.84911600    0.00553456   -0.00257480    0.00662487   0   0   0
  257   2   11.13896500   -0.53155100   11.34307400    0.01641778   -0.00978692   -0.01111068   0   0   0
  258   2   10.34630800   -0.13514900   10.11569700    0.01557432    0.00726858   -0.00505760   0   0   0
  259   3   10.80000000    0.00000000   10.80000000    0.00982607   -0.00203510    0.00059095   0   0   0
  260   4   10.79513500    0.19057900   10.83984000    0.00000000    0.00000000    0.00000000   0   0   0
  261   1    0.03989900    3.83186000   10.84911600   -0.00089900   -0.00382073    0.00160860   0   0   0
  262   2    0.33896500    3.06844900   11.34307400   -0.00661545   -0.00957823   -0.00382859   0   0   0
  263   2   -0.45369200    3.46485100   10.11569700   -0.00077689    0.00500411   -0.00288960   0   0   0
  264   3    0.00000000    3.60000000   10.80000000   -0.00204645   -0.00319159   -0.00042924   0   0   0
  265   4   -0.00486500    3.79057900   10.83984000    0.00000000    0.00000000    0.00000000   0   0   0
  266   1    3.63989900    3.83186000   10.84911600    0.00072872   -0.00182742   -0.00013758   0   0   0
  267   2    3.93896500    3.06844900   11.34307400    0.01288373   -0.00542084   -0.01305043   0   0   0
  268   2    3.14630800    3.46485100   10.11569700    0.02033875    0.00226464   -0.01538283   0   0   0
  269   3    3.60000000    3.60000000   10.80000000    0.00724404   -0.00172514   -0.00591308   0   0   0
  270   4    3.59513500    3.79057900   10.83984000    0.00000000    0.00000000    0.00000000   0   0   0
  271   1    7.23989900    3.83186000   10.84911600   -0.00141624   -0.00133673   -0.00374679   0   0   0
  272   2    7.53896500    3.06844900   11.34307400   -0.01290711    0.01246752    0.02454478   0   0   0
  273   2    6.74630800    3.46485100   10.11569700    0.02367674   -0.02209819   -0.01024515   0   0   0
  274   3    7.20000000    3.60000000   10.80000000    0.00137369   -0.00276373    0.00072321   0   0   0
  275   4    7.19513500    3.79057900   10.83984000    0.00000000    0.00000000    0.00000000   0   0   0
  276   1   10.83989900    3.83186000   10.84911600   -0.00092180   -0.00194407   -0.00412116   0   0   0
  277   2   11.13896500    3.06844900   11.34307400   -0.00295119   -0.00820841   -0.01257399   0   0   0
  278   2   10.34630800    3.46485100   10.11569700    0.00311207    0.00732339   -0.01147347   0   0   0
  279   3   10.80000000    3.60000000   10.80000000   -0.00051066   -0.00132810   -0.00736294   0   0   0
  280   4   10.79513500    3.79057900   10.83984000    0.00000000    0.00000000    0.00000000   0   0   0