LAMMPS (17 Apr 2024)
units real
boundary p p p

atom_style full
bond_style harmonic
angle_style harmonic
special_bonds lj/coul 0.0 0.0 0.5

pair_style lj/cut/coul/long 6.0
kspace_style ewald 1.0e-6

comm_modify vel yes

read_data       data.lammps
Reading data file ...
  orthogonal box = (-1.8 -1.8 -1.8) to (1.8 1.8 1.8)
  1 by 1 by 1 MPI processor grid
  reading atoms ...
  5 atoms
  scanning bonds ...
  1 = max bonds/atom
  scanning angles ...
  1 = max angles/atom
  orthogonal box = (-1.8 -1.8 -1.8) to (1.8 1.8 1.8)
  1 by 1 by 1 MPI processor grid
  reading bonds ...
  4 bonds
  reading angles ...
  1 angles
Finding 1-2 1-3 1-4 neighbors ...
  special bond factors lj:    0        0        0.5     
  special bond factors coul:  0        0        0.5     
     4 = max # of 1-2 neighbors
     3 = max # of 1-3 neighbors
     3 = max # of 1-4 neighbors
     4 = max # of special neighbors
  special bonds CPU = 0.000 seconds
  read_data CPU = 0.017 seconds
replicate       4 4 4
Replication is creating a 4x4x4 = 64 times larger system...
  orthogonal box = (-1.8 -1.8 -1.8) to (12.6 12.6 12.6)
  1 by 1 by 1 MPI processor grid
  320 atoms
  256 bonds
  64 angles
Finding 1-2 1-3 1-4 neighbors ...
  special bond factors lj:    0        0        0.5     
  special bond factors coul:  0        0        0.5     
     4 = max # of 1-2 neighbors
     3 = max # of 1-3 neighbors
     3 = max # of 1-4 neighbors
     4 = max # of special neighbors
  special bonds CPU = 0.000 seconds
  replicate CPU = 0.001 seconds

pair_coeff    1    1      0.210939     3.183950  # ODw ODw
pair_coeff    *   2*      0.000000     0.0

group ATOMS type 1:3
256 atoms in group ATOMS
group CORES type 1
64 atoms in group CORES
group DRUDES type 4
64 atoms in group DRUDES

variable TK equal 300.0
variable TDK equal 1.0
variable PBAR equal 1.0

neighbor 2.0 bin

timestep 1

fix DRUDE all drude C N N D

velocity ATOMS create ${TK} 12345
velocity ATOMS create 300 12345

delete_bonds ATOMS multi
System init for delete_bonds ...
Ewald initialization ...
  using 12-bit tables for long-range coulomb (src/kspace.cpp:342)
  G vector (1/distance) = 0.59941849
  estimated absolute RMS force accuracy = 0.00042815604
  estimated relative force accuracy = 1.2893792e-06
  KSpace vectors: actual max1d max3d = 2084 10 4630
                  kxmax kymax kzmax  = 10 10 10
Generated 0 of 6 mixed pair_coeff terms from geometric mixing rule
Rebuild special list taking Drude particles into account
Old max number of 1-2 to 1-4 neighbors: 4
New max number of 1-2 to 1-4 neighbors: 4 (+0)
Neighbor list info ...
  update: every = 1 steps, delay = 0 steps, check = yes
  max neighbors/atom: 2000, page size: 100000
  master list distance cutoff = 8
  ghost atom cutoff = 8
  binsize = 4, bins = 4 4 4
  1 neighbor lists, perpetual/occasional/extra = 1 0 0
  (1) pair lj/cut/coul/long, perpetual
      attributes: half, newton on
      pair build: half/bin/newton
      stencil: half/bin/3d
      bin: standard
Deleting bonds ...
  256 total bonds, 64 turned on, 192 turned off
  64 total angles, 0 turned on, 64 turned off
  0 total dihedrals, 0 turned on, 0 turned off
  0 total impropers, 0 turned on, 0 turned off

#fix TEMP all langevin/drude ${TK} 100. 1256 ${TDK} 20. 13977 zero yes
#fix NPH ATOMS rigid/nph/small molecule iso ${PBAR} ${PBAR} 500.
#fix NVE DRUDES nve

compute TATOMS ATOMS temp
fix NPT ATOMS rigid/npt/small molecule temp ${TK} ${TK} 50. iso ${PBAR} ${PBAR} 500. dilate ATOMS
fix NPT ATOMS rigid/npt/small molecule temp 300 ${TK} 50. iso ${PBAR} ${PBAR} 500. dilate ATOMS
fix NPT ATOMS rigid/npt/small molecule temp 300 300 50. iso ${PBAR} ${PBAR} 500. dilate ATOMS
fix NPT ATOMS rigid/npt/small molecule temp 300 300 50. iso 1 ${PBAR} 500. dilate ATOMS
fix NPT ATOMS rigid/npt/small molecule temp 300 300 50. iso 1 1 500. dilate ATOMS
  create bodies CPU = 0.000 seconds
  64 rigid bodies with 256 atoms
  0.8320896 = max distance from body owner to body atom
fix_modify NPT temp TATOMS press thermo_press
WARNING: Temperature for fix modify is not for group all (src/RIGID/fix_rigid_nh_small.cpp:1281)
fix dmin all min/drude 10 100 1.0e-4 1.0e-4

compute TEMP all temp/drude

thermo_style custom step cpu etotal ke pe press vol density temp c_TEMP[1] c_TEMP[2]
thermo 1

#log 	log_el.lammps

dump            1 all custom 1 dump.coord id type x y z vx vy vz ix iy iz
dump_modify     1 sort id format line "%5d %3d %13.8f %13.8f %13.8f %13.8f %13.8f %13.8f %3d %3d %3d" flush yes

run 10000
Ewald initialization ...
  using 12-bit tables for long-range coulomb (src/kspace.cpp:342)
  G vector (1/distance) = 0.59941849
  estimated absolute RMS force accuracy = 0.00042815604
  estimated relative force accuracy = 1.2893792e-06
  KSpace vectors: actual max1d max3d = 2084 10 4630
                  kxmax kymax kzmax  = 10 10 10
Generated 0 of 6 mixed pair_coeff terms from geometric mixing rule
Per MPI rank memory allocation (min/avg/max) = 29.04 | 29.04 | 29.04 Mbytes
   Step          CPU           TotEng         KinEng         PotEng         Press          Volume        Density          Temp        c_TEMP[1]      c_TEMP[2]   
         0   0              54.138514      104.32244     -50.183927      299253.92      2985.984       0.64117388     183.23569      270.02775      6.7885129    
         1   1.5835045     -124.13914      106.09403     -230.23317     -3647.9904      2986.9962      0.64095661     186.34738      274.6015       6.9274456    
         2   3.1620078     -123.02941      108.15129     -231.18071     -6440.3671      2987.9964      0.64074206     189.96082      279.99578      6.922782     
         3   4.717408      -121.13408      111.71377     -232.84784     -6532.133       2988.9752      0.64053224     196.21808      289.3327       6.9229335    
         4   6.2997426     -118.5328       116.62615     -235.15896     -6676.805       2989.9322      0.64032722     204.84637      302.20508      6.9282477    
         5   7.8527058     -115.32738      122.69413     -238.02151     -6868.7479      2990.8669      0.64012711     215.50438      318.10343      6.9390436    
         6   9.4367154     -111.63719      129.69189     -241.32908     -7100.88        2991.7786      0.63993204     227.79551      336.43581      6.9555931    
         7   10.991322     -107.59432      137.37128     -244.9656      -7364.7351      2992.6665      0.63974216     241.28386      356.55171      6.9780988    
         8   12.556439     -103.33839      145.47228     -248.81067     -7651.4994      2993.5297      0.63955768     255.51274      377.76959      7.0066709    
         9   14.214685     -99.011701      153.73451     -252.74621     -7951.8668      2994.3673      0.6393788      270.02482      399.40701      7.0413004    
        10   15.87052      -94.751259      161.90877     -256.66003     -8256.5808      2995.178       0.63920573     284.3824       420.81095      7.0818294    
        11   17.422833     -90.683911      169.7678      -260.45171     -8556.591       2995.961       0.63903868     298.18628      441.38588      7.1279255    
        12   19.010423     -86.921613      177.11473     -264.03634     -8844.0178      2996.7151      0.63887787     311.09069      460.6161       7.1790593    
        13   20.563143     -83.556432      183.78869     -267.34512     -9111.7779      2997.4393      0.63872352     322.81307      478.08038      7.2344973    
        14   22.13388      -80.679145      189.66732     -270.34646     -9356.0218      2998.1327      0.63857579     333.1385       493.45843      7.2933506    
        15   23.687504     -78.305439      194.66506     -272.9705      -9569.2173      2998.7944      0.63843488     341.91672      506.5266       7.3545196    
        16   25.26592      -76.486983      198.72976     -275.21674     -9750.0969      2999.4237      0.63830093     349.0561       517.14878      7.4167428    
        17   26.814295     -75.259018      201.83899     -277.09801     -9898.6895      3000.02        0.63817407     354.51728      525.26686      7.4787842    
        18   28.369394     -74.585868      203.99437     -278.58024     -10011.267      3000.5826      0.63805441     358.30306      530.88565      7.5393885    
        19   29.90836      -74.474411      205.21739     -279.6918      -10089.289      3001.1112      0.63794202     360.45121      534.06211      7.5973656    
        20   31.463559     -74.900654      205.54695     -280.44761     -10133.492      3001.6056      0.63783695     361.03007      534.89868      7.6517493    
        21   33.001787     -75.847642      205.03695     -280.88459     -10146.382      3002.0654      0.63773925     360.13428      533.53694      7.7018541    
        22   34.571292     -77.249815      203.75435     -281.00417     -10127.897      3002.4908      0.6376489      357.88148      530.15262      7.7472943    
        23   36.124318     -79.070584      201.77747     -280.84805     -10081.197      3002.8816      0.63756591     354.40921      524.95099      7.7880108    
        24   37.677997     -81.190775      199.19346     -280.38424     -10002.161      3003.2381      0.63749023     349.87057      518.1604       7.8241904    
        25   39.273135     -83.640678      196.05431     -279.69499     -10047.835      3003.5605      0.63742181     344.35685      509.91725      7.8554752    
        26   40.843542     -86.327757      192.46241     -278.79017     -9936.2926      3003.8486      0.63736067     338.04791      500.48961      7.8824992    
        27   42.540305     -89.116316      188.56966     -277.68597     -9793.9108      3004.1028      0.63730673     331.21053      490.27475      7.9069321    
        28   44.168485     -91.970113      184.48876     -276.45888     -9632.2035      3004.3236      0.6372599      324.0427       479.56754      7.9298599    
        29   45.76138      -94.853581      180.3382      -275.19179     -9459.6968      3004.5115      0.63722005     316.75252      468.67783      7.9526266    
        30   47.355742     -97.586261      176.24246     -273.82872     -9268.1865      3004.6671      0.63718705     309.55861      457.93116      7.97665      
        31   48.900165     -100.17185      172.33409     -272.50595     -9069.7759      3004.791       0.63716077     302.69381      447.67417      8.0034914    
        32   50.466757     -102.50245      168.75549     -271.25794     -8868.6122      3004.884       0.63714106     296.40821      438.27911      8.0350435    
        33   52.006953     -104.50633      165.65658     -270.16291     -8670.1564      3004.9466      0.63712778     290.96518      430.13787      8.07348      
        34   53.564957     -106.13138      163.19118     -269.32256     -8482.91        3004.9796      0.63712078     286.63487      423.65231      8.1213192    
        35   55.110291     -107.32659      161.51068     -268.83727     -8315.0197      3004.9836      0.63711993     283.68318      419.21777      8.181446     
        36   56.658231     -108.01251      160.75494     -268.76745     -8170.2823      3004.9592      0.6371251      282.35576      417.19925      8.2569815    
        37   58.214879     -108.17531      161.04236     -269.21767     -8059.5311      3004.9069      0.63713619     282.8606       417.90548      8.3511369    
        38   59.753836     -107.72537      162.46012     -270.18548     -7983.2885      3004.8271      0.63715313     285.3508       421.56336      8.4670733    
        39   61.320432     -106.68655      165.05536     -271.74191     -7946.8231      3004.7199      0.63717584     289.90917      428.29496      8.607775     
        40   62.858389     -104.9953       168.82719     -273.82249     -7945.578       3004.5857      0.63720432     296.53415      438.09665      8.7758232    
        41   64.40872      -102.765        173.72182     -276.48682     -7986.4095      3004.4243      0.63723855     305.13126      450.82643      8.9732481    
        42   65.945307     -100.04328      179.63138     -279.67466     -8066.0574      3004.2356      0.63727857     315.51103      466.20092      9.2013828    
        43   67.500667     -96.905738      186.39675     -283.30249     -8179.0602      3004.0194      0.63732443     327.39396      483.80286      9.4606449    
        44   69.040474     -93.504747      193.81693     -287.32167     -8325.159       3003.7753      0.63737622     340.42703      503.10569      9.7505227    
        45   70.60407      -89.97017       201.66176     -291.63193     -8494.9032      3003.5028      0.63743405     354.20597      523.50696      10.069513    
        46   72.144411     -86.383004      209.68678     -296.06978     -8677.8084      3003.2014      0.63749803     368.30141      544.36722      10.415073    
        47   73.703488     -82.948622      217.64894     -300.59756     -8872.3214      3002.8703      0.63756831     382.28643      565.05115      10.783772    
        48   75.246811     -79.742058      225.33166     -305.07372     -9264.4787      3002.5091      0.63764502     395.78064      584.99407      11.169703    
        49   76.918644     -76.868773      232.53461     -309.40338     -9474.8452      3002.1163      0.63772844     408.43216      603.67344      11.567859    
        50   78.459345     -74.451757      239.06715     -313.51891     -9672.3401      3001.6913      0.63781874     419.90615      620.59147      11.974497    
        51   80.015755     -72.531964      244.77942     -317.31138     -9852.7761      3001.2333      0.63791606     429.93939      635.35821      12.383946    
        52   81.554598     -71.153367      249.55106     -320.70443     -10010.456      3000.7419      0.63802053     438.32047      647.66114      12.790384    
        53   83.108017     -70.416983      253.29298     -323.70996     -10147.925      3000.2165      0.63813227     444.89291      657.2695       13.188273    
        54   84.668051     -70.349912      255.95013     -326.30004     -10264.922      2999.6566      0.63825138     449.56002      664.04149      13.572715    
        55   86.240134     -70.902173      257.50469     -328.40686     -10353.072      2999.0619      0.63837794     452.2905       667.93247      13.939529    
        56   87.779734     -72.09123       257.98215     -330.07338     -10413.143      2998.4321      0.63851203     453.12914      669.0109       14.285497    
        57   89.330771     -73.885583      257.4555      -331.34108     -10445.059      2997.767       0.63865369     452.2041       667.46907      14.608477    
        58   90.886309     -76.189263      256.04622     -332.23548     -10442.784      2997.0666      0.63880294     449.72879      663.62599      14.907396    
        59   92.660354     -78.916722      253.92213     -332.83885     -10409.716      2996.3309      0.6389598      445.99797      657.92158      15.182013    
        60   94.407691     -81.903314      251.29521     -333.19852     -10341.87       2995.56        0.63912423     441.38395      650.91115      15.432912    
        61   96.230715     -85.021841      248.41645     -333.43829     -10242.27       2994.7542      0.6392962      436.32759      643.25175      15.661648    
        62   97.953532     -88.114697      245.56151     -333.67621     -10121.127      2993.9139      0.63947563     431.31309      635.66464      15.870709    
        63   99.690342     -91.097942      243.00954     -334.10748     -9986.2556      2993.0395      0.63966245     426.83071      628.87962      16.063645    
        64   101.45177     -93.666055      241.01349     -334.67955     -9832.3899      2992.1315      0.63985656     423.32477      623.55761      16.244652    
        65   103.21631     -95.796821      239.77393     -335.57075     -9673.0329      2991.1905      0.64005784     421.14756      620.22201      16.418236    
        66   104.98806     -97.437985      239.41733     -336.85532     -9520.9124      2990.2171      0.6402662      420.52122      619.20221      16.588604    
        67   106.79147     -98.541217      239.99045     -338.53167     -9371.3953      2989.2118      0.64048153     421.52787      620.61882      16.759595    
        68   108.65185     -99.099208      241.46156     -340.56077     -9220.812       2988.1752      0.64070372     424.11177      624.38711      16.934354    
        69   110.38795     -99.185421      243.7233      -342.90872     -9072.2114      2987.1078      0.64093266     428.08437      630.22502      17.114253    
        70   112.16461     -98.867244      246.61695     -345.48419     -8920.8676      2986.0102      0.64116826     433.16688      637.7166       17.299218    
        71   113.9909      -98.282913      249.96057     -348.24348     -8763.9896      2984.8829      0.6414104      439.03974      646.38556      17.488122    
        72   116.00637     -97.538124      253.57417     -351.1123      -8598.9456      2983.7266      0.64165898     445.3868       655.76106      17.679131    
        73   117.94729     -98.475689      255.52088     -353.99657     -8751.0823      2982.5417      0.64191389     448.80608      660.81374      17.778158    
        74   119.70958     -100.028        256.14445     -356.17245     -4044.7519      2981.3279      0.64217524     449.90133      662.41004      17.854199    
        75   121.48451     -100.08758      258.30197     -358.38955     -7954.267       2980.1011      0.64243961     453.69089      667.98519      18.013356    
        76   123.36751     -100.10694      260.41072     -360.51766     -7673.1821      2978.848       0.64270985     457.39476      673.43522      18.167061    
        77   125.19895     -101.58045      261.14575     -362.72619     -8619.995       2977.5698      0.64298575     458.68579      675.3317       18.227012    
        78   127.08702     -103.86422      260.30958     -364.1738      -2596.2084      2976.2632      0.64326802     457.21713      673.12764      18.252077    
        79   129.0271      -105.11769      260.45418     -365.57187     -6753.2011      2974.9486      0.64355227     457.4711       673.46038      18.344573    
        80   130.81472     -106.52828      260.62074     -367.14901     -6422.7493      2973.612       0.64384154     457.76365      673.86079      18.416818    
        81   132.61114     -108.72491      260.14111     -368.86602     -8360.3781      2972.2546      0.64413558     456.92121      672.61343      18.397368    
        82   134.43648     -111.57278      258.28479     -369.85757     -1024.5056      2970.8699      0.64443582     453.6607       667.78466      18.324325    
        83   136.27397     -113.59915      257.54848     -371.14763     -5444.7496      2969.4825      0.64473691     452.36742      665.87601      18.282016    
        84   138.16028     -115.16578      257.67788     -372.84366     -5133.4203      2968.0776      0.64504208     452.59471      666.2511       18.210134    
        85   140.0597      -117.22688      257.68561     -374.91249     -8016.4614      2966.6563      0.64535111     452.60828      666.33639      18.080072    
        86   141.93327     -119.691        256.77242     -376.46342      409.98055      2965.2091      0.64566608     451.00432      664.03176      17.9025      
        87   143.82949     -121.84447      256.59741     -378.44188     -7889.5178      2963.7641      0.64598089     450.69693      663.66478      17.71907     
        88   145.60054     -124.31686      255.31856     -379.63542      1075.0869      2962.2935      0.64630157     448.45072      660.42601      17.493095    
        89   147.5255      -125.53015      255.68514     -381.21529     -3783.7337      2960.8274      0.6466216      449.09458      661.50212      17.262388    
        90   149.31736     -127.44514      255.49862     -382.94376     -7667.7719      2959.3495      0.64694453     448.76697      661.12951      17.029907    
        91   151.19466     -130.67482      253.05045     -383.72527     -2191.1437      2957.847       0.64727316     444.46692      654.83614      16.783688    
        92   153.07179     -133.82318      249.6804      -383.50358     -1993.1314      2956.3381      0.64760353     438.54764      646.13301      16.524584    
        93   154.96149     -137.21784      245.09708     -382.31493      3233.9964      2954.8234      0.64793549     430.49734      634.27382      16.217867    
        94   156.85794     -140.29561      241.26584     -381.56145     -1829.9525      2953.3203      0.64826526     423.76801      624.39312      15.89642     
        95   158.71818     -142.85968      238.43178     -381.29146     -6955.913       2951.812       0.6485965      418.79016      617.098        15.630899    
        96   160.57808     -145.67834      234.76003     -380.43838     -1028.2525      2950.2816      0.64893295     412.34097      607.59402      15.392049    
        97   162.44856     -148.39123      230.66991     -379.06114     -784.75848      2948.7487      0.6492703      405.15694      596.99172      15.156821    
        98   164.33106     -150.99419      226.28214     -377.27633     -524.38562      2947.2141      0.64960837     397.4501       585.60647      14.927185    
        99   166.14196     -153.55997      221.72849     -375.28846     -256.64824      2945.6786      0.64994699     389.4519       573.78256      14.705388    
       100   167.97903     -155.99612      217.14205     -373.13817      16.202283      2944.1432      0.65028594     381.39611      561.86753      14.493953    
       101   169.87918     -158.35937      212.64828     -371.00765      285.19169      2942.6088      0.65062505     373.5031       550.18882      14.295662    
       102   171.84414     -160.67375      208.35663     -369.03038      543.58355      2941.0761      0.6509641      365.96509      539.03186      14.113324    
       103   173.73423     -162.85039      204.3548      -367.20519      790.90912      2939.5461      0.65130292     358.93613      528.62524      13.949515    
       104   175.66469     -165.4164       200.25805     -365.67445      9637.4415      2938.0196      0.65164132     351.74045      517.94882      13.827763    
       105   177.61018     -167.34815      199.07686     -366.42501     -4980.9254      2936.5255      0.65197287     349.66576      514.87332      13.787123    
       106   179.50326     -169.38258      198.04798     -367.43056      1285.1613      2935.0159      0.6523082      347.85861      512.2036       13.733333    
       107   181.39307     -171.36061      197.20812     -368.56874      1372.7547      2933.5114      0.65264275     346.38345      510.02102      13.696072    
       108   183.28269     -173.30179      196.46213     -369.76392      1456.2002      2932.0123      0.65297645     345.07317      508.0791       13.669527    
       109   185.22638     -175.20856      195.7239      -370.93245      1541.4726      2930.5187      0.65330925     343.7765       506.1556       13.646787    
       110   187.10137     -177.1012       194.92263     -372.02383      1632.5862      2929.031       0.65364108     342.36913      504.06867      13.62053     
       111   188.98746     -178.94371      194.00607     -372.94978      1734.7079      2927.5494      0.65397187     340.75925      501.6848       13.583792    
       112   190.87585     -180.73544      192.94207     -373.67751      1849.8407      2926.0743      0.65430155     338.8904       498.92261      13.530805    
       113   192.79048     -182.51283      191.7198      -374.23263      1976.4309      2924.606       0.65463004     336.74356      495.75564      13.457798    
       114   194.73528     -184.25688      190.34972     -374.6066       2113.8123      2923.145       0.65495724     334.33711      492.21192      13.363469    
       115   196.64685     -186.00337      188.86301     -374.86638      2257.3804      2921.6916      0.65528304     331.72579      488.37252      13.24913     
       116   198.57568     -187.67853      187.30905     -374.98758      2406.3483      2920.2463      0.65560735     328.99637      484.36508      13.118376    
       117   200.44892     -189.33891      185.75028     -375.08919      2553.2367      2918.8096      0.65593006     326.25848      480.35062      12.976406    
       118   202.3432      -190.94896      184.25371     -375.20267      2694.7035      2917.3819      0.65625105     323.62985      476.50184      12.829163    
       119   204.29895     -192.54774      182.88041     -375.42814      2824.4933      2915.9637      0.65657022     321.21773      472.97586      12.682454    
       120   206.19077     -194.08231      181.6768      -375.75911      2941.739       2914.5554      0.65688747     319.10368      469.89188      12.541283    
       121   208.11782     -195.59149      180.67169     -376.26317      3042.8173      2913.1573      0.65720273     317.33826      467.32343      12.40951     
       122   210.01348     -197.09679      179.87927     -376.97606      3126.0361      2911.7698      0.6575159      315.94643      465.30643      12.289777    
       123   211.95487     -198.54544      179.30642     -377.85186      3193.7111      2910.393       0.65782694     314.94024      463.85809      12.183618    
       124   213.82554     -200.0137       178.96017     -378.97387      3242.4684      2909.0273      0.65813579     314.33208      462.9966       12.091622    
       125   215.73421     -201.48673      178.85305     -380.33978      3272.656       2907.6726      0.6584424      314.14394      462.75481      12.013694    
       126   217.63347     -202.8955       179.00334     -381.89885      3286.2805      2906.3292      0.65874676     314.40792      463.18092      11.949296    
       127   219.57823     -204.35588      179.42918     -383.78506      3276.4699      2904.997       0.65904886     315.15588      464.32289      11.89755     
       128   221.53275     -205.77983      180.1392      -385.91903      3245.8456      2903.6759      0.6593487      316.40297      466.20386      11.857393    
       129   223.46339     -207.22918      181.12155     -388.35073      3190.6475      2902.366       0.6596463      318.12842      468.79342      11.827664    
       130   225.41117     -208.69022      182.33404     -391.02426      3112.3332      2901.0668      0.65994169     320.25807      471.98156      11.807075    
       131   227.38256     -210.1484       183.69957     -393.84797      3014.0895      2899.7783      0.66023494     322.65654      475.56692      11.794272    
       132   229.3609      -211.64407      185.10802     -396.75209      2898.7533      2898.5         0.66052611     325.1304       479.26158      11.787878    
       133   231.34427     -213.21436      186.42451     -399.63887      2771.1015      2897.2317      0.66081528     327.44272      482.7127       11.786472    
       134   233.29934     -214.80442      187.50328     -402.30769      2641.1862      2895.9728      0.66110254     329.3375       485.53906      11.788488    
       135   235.2989      -216.35581      188.20675     -404.56256      2519.7127      2894.7229      0.661388       330.57311      487.38095      11.792221    
       136   237.29036     -217.93839      188.42646     -406.36485      2410.7279      2893.4816      0.66167172     330.95902      487.95491      11.795996    
       137   239.26295     -219.49168      188.09953     -407.5912       2322.6317      2892.2486      0.6619538      330.38478      487.09688      11.798306    
       138   241.22744     -221.11937      187.21662     -408.33599      2253.7361      2891.0236      0.66223429     328.834        484.78304      11.797892    
       139   243.19897     -222.70519      185.81939     -408.52458      2209.9088      2889.8063      0.66251324     326.37987      481.12307      11.793778    
       140   245.15394     -224.24382      183.98854     -408.23237      2189.526       2888.5967      0.66279068     323.1641       476.32884      11.785175    
       141   247.10702     -225.78551      181.8261      -407.6116       2186.5938      2887.3945      0.66306663     319.3659       470.66821      11.7712      
       142   249.06256     -227.27057      179.438       -406.70857      2199.5683      2886.1999      0.66334108     315.17136      464.41953      11.750464    
       143   251.04494     -228.76822      176.92131     -405.68954      2220.606       2885.0128      0.66361404     310.75097      457.83834      11.720732    
       144   252.99856     -230.23889      174.35757     -404.59646      2247.3574      2883.8332      0.66388547     306.24791      451.13983      11.678959    
       145   254.98922     -231.71651      171.80983     -403.52634      2274.7944      2882.6613      0.66415536     301.77297      444.49097      11.621766    
       146   256.9468      -233.12708      169.32065     -402.44773      2303.5318      2881.4971      0.66442369     297.40088      438.00482      11.546119    
       147   258.91289     -234.50388      166.91269     -401.41657      2330.3975      2880.3408      0.66469044     293.17145      431.74179      11.44998     
       148   260.80365     -235.86489      164.59625     -400.46114      2353.5609      2879.1923      0.66495558     289.10278      425.72911      11.33289     
       149   262.78844     -237.17118      162.38152     -399.55271      2374.0028      2878.0517      0.6652191      285.21276      419.99279      11.196233    
       150   264.7107      -238.38738      160.29011     -398.67749      2391.7533      2876.9191      0.66548098     281.53932      414.58784      11.043217    
       151   266.6238      -239.64163      158.35983     -398.00146      2398.2481      2875.7946      0.66574121     278.14891      409.61098      10.878692    
       152   268.61574     -240.8443       156.63933     -397.48363      2394.2087      2874.678       0.66599978     275.12696      405.18665      10.708716    
       153   270.53049     -242.03472      155.17611     -397.21084      2373.7856      2873.5695      0.6662567      272.55691      401.43601      10.540011    
       154   272.48778     -243.16167      154.00454     -397.16621      2336.2595      2872.469       0.66651197     270.49911      398.4457       10.379396    
       155   274.40857     -244.3004       153.13866     -397.43906      2276.5866      2871.3762      0.66676563     268.97825      396.24941      10.233158    
       156   276.26775     -245.38053      152.57441     -397.95494      2197.781       2870.291       0.66701771     267.98719      394.83383      10.106599    
       157   278.15272     -246.4226       152.29985     -398.72245      2099.5475      2869.2132      0.66726827     267.50493      394.16561      10.003813    
       158   280.08306     -246.59613      153.19323     -399.78936      13110.886      2868.1424      0.66751739     269.07411      396.54051      9.9370432    
       159   282.06786     -246.17789      156.80691     -402.9848      -4621.1996      2867.113       0.66775705     275.42131      406.00296      9.9545314    
       160   283.95117     -247.26554      159.03743     -406.30297      1552.651       2866.0697      0.66800015     279.33907      411.83956      9.9734198    
       161   285.84562     -248.38528      161.20517     -409.59045      1291.5922      2865.0316      0.66824218     283.14657      417.50234      10.010873    
       162   287.76068     -247.72285      164.8766      -412.59944      10914.024      2863.998       0.66848335     289.59519      427.07174      10.117155    
       163   289.65526     -246.70993      170.21674     -416.92667     -5763.7868      2862.9987      0.66871666     298.97481      440.99064      10.271656    
       164   291.55761     -247.90295      172.61745     -420.5204       460.22017      2861.982       0.66895421     303.1915       447.23877      10.359601    
       165   293.47618     -249.12297      174.13005     -423.25302      194.60005      2860.9672      0.6691915      305.84829      451.16294      10.440105    
       166   295.42277     -250.36282      174.65984     -425.02266     -23.839762      2859.9534      0.66942871     306.77883      452.51714      10.508787    
       167   297.3441      -251.6162       174.18742     -425.80362     -190.34673      2858.94        0.66966601     305.94906      451.25221      10.562317    
       168   299.311       -253.23916      172.39787     -425.63703      7910.4145      2857.9265      0.66990351     302.80583      446.52588      10.634379    
       169   301.24726     -254.43736      171.53426     -425.97163     -6929.3314      2856.9378      0.67013532     301.28896      444.225        10.709234    
       170   303.1526      -255.71672      169.87175     -425.58847     -450.81642      2855.9282      0.67037223     298.36886      439.86177      10.721018    
       171   305.08244     -256.93347      167.59427     -424.52774     -485.23385      2854.9176      0.67060954     294.36861      433.89676      10.71278     
       172   307.05274     -259.17526      163.89119     -423.06645      7491.3892      2853.9059      0.67084726     287.86438      424.20006      10.695149    
       173   308.9879      -260.89723      161.96785     -422.86508     -6869.24        2852.9178      0.6710796      284.48617      419.16311      10.687197    
       174   310.90731     -262.10483      160.46522     -422.57005     -511.2703       2851.909       0.671317       281.8469       415.24382      10.64918     
       175   312.8757      -263.50681      158.76147     -422.26827      7499.3141      2850.8989      0.67155483     278.85435      410.80218      10.601606    
       176   314.77345     -264.4341       159.24422     -423.67833     -6856.8718      2849.9125      0.67178728     279.70229      412.07901      10.578494    
       177   316.70556     -264.83796      160.31503     -425.15298      7403.8735      2848.9053      0.67202478     281.58309      414.90015      10.54922     
       178   318.61973     -263.10418      165.06352     -428.1677       1023.5775      2847.9213      0.67225696     289.9235       427.333        10.574447    
       179   320.50282     -262.19683      170.12441     -432.32124     -7207.2845      2846.941       0.67248847     298.81265      440.57773      10.613531    
       180   322.47631     -261.21788      174.81295     -436.03083      9558.3998      2845.9388      0.67272526     307.04776      452.84582      10.654028    
       181   324.358       -259.90815      180.35978     -440.26792     -7569.8834      2844.9665      0.67295518     316.7904       467.35111      10.719136    
       182   326.26099     -261.32247      182.27295     -443.59543     -1447.5177      2843.9714      0.67319066     320.15078      472.36055      10.728874    
       183   328.19255     -261.24345      184.67381     -445.91726      8763.61        2842.9722      0.67342725     324.36773      478.63939      10.756174    
       184   330.1126      -260.94372      187.24806     -448.19178     -8083.0952      2842.0004      0.67365753     328.88923      485.36546      10.797883    
       185   332.05261     -262.41296      186.82391     -449.23686     -1781.0472      2841.0042      0.67389375     328.14424      484.25739      10.790676    
       186   334.00496     -263.64594      185.61946     -449.2654       8242.9675      2840.003       0.67413132     326.02871      481.10589      10.780137    
       187   335.92425     -264.56607      184.67404     -449.24011     -8265.6683      2839.0274      0.67436296     324.36813      478.6298       10.77653     
       188   337.80114     -266.1177       182.24676     -448.36447     -1846.1325      2838.027       0.67460067     320.10478      472.28684      10.739024    
       189   339.68067     -267.6396       179.09911     -446.73872     -1816.6002      2837.0215      0.67483979     314.57613      464.06408      10.684963    
       190   341.64907     -269.138        175.39186     -444.52986     -1754.142       2836.0108      0.67508028     308.06459      454.38274      10.614774    
       191   343.59892     -270.60136      171.28882     -441.89018     -1663.9951      2834.9952      0.67532212     300.85785      443.67162      10.529401    
       192   345.44619     -272.04066      166.94574     -438.9864      -1552.6131      2833.975       0.67556523     293.22951      432.3383       10.430225    
       193   347.39477     -273.39321      162.50658     -435.89978     -1422.976       2832.9505      0.67580954     285.4324       420.75922      10.318897    
       194   349.26182     -274.72838      158.10577     -432.83415     -1284.2143      2831.9221      0.67605495     277.70267      409.28584      10.197241    
       195   351.19192     -275.9704       153.86969     -429.84009     -1138.7756      2830.8903      0.67630137     270.26227      398.24844      10.067071    
       196   353.113       -277.15689      149.91311     -427.07001     -994.37447      2829.8554      0.67654868     263.31279      387.94704      9.9300217    
       197   355.07989     -279.32872      145.29261     -424.62132      8745.0822      2828.818       0.67679679     255.19716      375.93266      9.7387237    
       198   357.00086     -280.94255      143.05613     -423.99868      2749.7711      2827.8076      0.67703862     251.26893      370.17459      9.5315291    
       199   358.89778     -281.49702      143.61783     -425.11484     -6856.1814      2826.8059      0.67727852     252.25552      371.71758      9.3899139    
       200   360.80423     -281.3929       145.04962     -426.44252      8891.414       2825.7839      0.67752347     254.77037      375.54016      9.2499913    
       201   362.72174     -280.831        148.21075     -429.04175     -7006.9652      2824.7893      0.67776203     260.3227       383.88375      9.133046     
       202   364.57706     -281.86645      149.62935     -431.4958      -880.18593      2823.7739      0.67800575     262.81438      387.65099      9.0346925    
       203   366.42626     -282.9508       150.70643     -433.65723     -949.45632      2822.7563      0.67825018     264.7062       390.52467      8.9332238    
       204   368.3113      -283.98888      151.30577     -435.29465     -994.87207      2821.7362      0.67849537     265.75891      392.14808      8.8280911    
       205   370.20023     -285.01558      151.33792     -436.3535      -1013.1221      2820.7136      0.67874134     265.81538      392.28686      8.7190522    
       206   372.08366     -285.6478       151.11233     -436.76013      6564.0686      2819.6884      0.67898813     265.41915      391.76459      8.5810794    
       207   373.9926      -285.41358      152.25657     -437.67016      128.22011      2818.6834      0.67923022     267.42893      394.82917      8.4498796    
       208   375.89241     -284.60534      154.46107     -439.06641      214.08756      2817.6792      0.67947228     271.30099      400.65278      8.3583401    
       209   377.8024      -284.43698      156.59576     -441.03274     -7713.4977      2816.6762      0.67971426     275.05043      406.27534      8.3029467    
       210   379.72173     -284.61327      157.88749     -442.50076      6902.393       2815.6503      0.67996191     277.31928      409.68543      8.2538654    
       211   381.59587     -284.44985      160.08982     -444.53967     -7878.6098      2814.6457      0.68020461     281.18753      415.468        8.2330125    
       212   383.49615     -285.54913      160.53293     -446.08206     -1206.2563      2813.6178      0.6804531      281.96581      416.64486      8.2020094    
       213   385.33567     -286.6242       160.43958     -447.06378     -1248.8005      2812.5867      0.68070255     281.80186      416.41482      8.1727722    
       214   387.20463     -287.74166      159.81382     -447.55548     -1272.4163      2811.5524      0.68095297     280.70275      414.78853      8.1452044    
       215   389.06177     -288.84086      158.67816     -447.51902     -1273.5005      2810.5147      0.68120438     278.70804      411.82487      8.1195459    
       216   390.91571     -289.93381      157.07625     -447.01006     -1252.7183      2809.4737      0.6814568      275.89439      407.63798      8.0963548    
       217   392.80582     -291.01599      155.07156     -446.08755     -1211.1138      2808.4294      0.6817102      272.37327      402.39381      8.0763668    
       218   394.67758     -292.06223      152.74166     -444.80389     -1149.8532      2807.3819      0.68196456     268.28096      396.29536      8.0602621    
       219   396.57988     -293.10502      150.17014     -443.27515     -1073.6542      2806.3315      0.68221982     263.76424      389.56153      8.0483461    
       220   398.51538     -294.10092      147.44045     -441.54137     -984.09892      2805.2783      0.68247594     258.96972      382.4112       8.0403555    
       221   400.4153      -295.08452      144.63307     -439.71759     -886.48121      2804.2227      0.68273286     254.03874      375.05572      8.0354231    
       222   402.32965     -296.01536      141.82411     -437.83948     -782.59005      2803.1649      0.6829905      249.10498      367.69528      8.0321261    
       223   404.28331     -296.98445      139.08486     -436.06931     -680.28368      2802.1052      0.68324878     244.29366      360.51756      8.0287498    
       224   406.18214     -297.87989      136.47954     -434.35944     -577.56481      2801.044       0.68350764     239.71758      353.69181      8.023538     
       225   408.07404     -298.7582       134.06183     -432.82003     -480.12958      2799.9815      0.683767       235.47103      347.35946      8.0149265    
       226   410.0272      -299.54605      131.87178     -431.41784     -387.01836      2798.9181      0.68402678     231.62435      341.62608      8.0017688    
       227   411.95486     -300.53256      129.70365     -430.23621      10213.688      2797.854       0.68428693     227.81615      335.94074      8.0073508    
       228   413.86144     -301.14733      129.60552     -430.75284     -6670.3406      2796.8207      0.68453975     227.6438       335.67091      8.0326391    
       229   415.797       -301.85979      129.4887      -431.34849     -255.75326      2795.7681      0.68479748     227.43862      335.37037      8.0213847    
       230   417.76525     -301.85172      130.22891     -432.08063      10313.386      2794.7152      0.68505548     228.73874      337.30328      8.035622     
       231   419.58318     -301.43346      132.764       -434.19746     -6724.97        2793.6933      0.68530607     233.19147      343.9295       8.0717762    
       232   421.50259     -302.16494      134.09442     -436.25935     -373.92919      2792.6519      0.68556161     235.52826      347.41972      8.0652226    
       233   423.41073     -302.87633      135.33524     -438.21157     -447.69638      2791.6099      0.68581751     237.70769      350.6771       8.0546932    
       234   425.29019     -303.5499       136.47611     -440.02601     -517.52575      2790.5671      0.6860738      239.71156      353.674        8.0411741    
       235   427.19664     -304.26196      137.52818     -441.79014     -588.00078      2789.5231      0.68633056     241.55945      356.43885      8.0262874    
       236   429.07789     -304.97799      138.50889     -443.48688     -658.88291      2788.4779      0.68658781     243.282        359.01626      8.0121988    
       237   431.00638     -305.69904      139.42705     -445.12609     -731.40056      2787.4312      0.68684562     244.89469      361.42809      8.0014095    
       238   432.83597     -306.44479      140.2721      -446.71689     -806.85946      2786.3829      0.68710405     246.37897      363.64539      7.9964603    
       239   434.65817     -306.04684      142.16074     -448.20759      9298.7395      2785.3326      0.68736313     249.69624      368.57354      8.040155     
       240   436.5214      -305.27811      145.5078      -450.78591     -7603.4869      2784.3102      0.68761554     255.57514      377.30272      8.1266101    
       241   438.39815     -306.07737      146.94073     -453.01811     -1111.5662      2783.2658      0.68787355     258.09199      381.03446      8.1743682    
       242   440.31612     -306.91142      147.8829      -454.79432     -1229.211       2782.2187      0.68813244     259.74685      383.47546      8.2310946    
       243   442.19095     -307.73672      148.23441     -455.97113     -1325.4508      2781.1684      0.68839231     260.36426      384.36494      8.2946984    
       244   444.07362     -308.54957      147.94586     -456.49543     -1395.746       2780.1148      0.68865321     259.85743      383.57486      8.3623038    
       245   445.99932     -309.20045      147.22833     -456.42878      8433.9825      2779.0575      0.68891521     258.59714      381.62997      8.4908943    
       246   447.93216     -309.45752      147.45999     -456.91751     -8209.709       2778.0254      0.68917116     259.00404      382.16095      8.6432756    
       247   449.84317     -309.94344      146.96754     -456.91099      8383.2463      2776.9697      0.68943315     258.13908      380.79867      8.7864971    
       248   451.76114     -310.08654      147.64156     -457.7281      -8299.5522      2775.939       0.68968913     259.32295      382.48617      8.9445653    
       249   453.72367     -310.9436       147.25697     -458.20057     -1630.04        2774.8845      0.68995121     258.64744      381.44159      9.0177852    
       250   455.62521     -311.76862      146.58116     -458.34978     -1679.5416      2773.8258      0.69021456     257.46042      379.64015      9.0781402    
       251   457.52005     -312.59469      145.6709      -458.26559     -1715.3892      2772.7626      0.69047921     255.86161      377.23078      9.12544      
       252   459.45451     -313.29006      144.74707     -458.03713      8552.3335      2771.695       0.69074519     254.23897      374.77264      9.1991458    
       253   461.34155     -312.59405      146.31864     -458.9127       1825.2593      2770.6527      0.69100503     256.99933      378.82389      9.3346091    
       254   463.24466     -312.14472      148.84382     -460.98853     -8593.2889      2769.6162      0.69126363     261.43464      385.38918      9.4406351    
       255   465.13609     -313.01641      149.79413     -462.81054     -1977.9521      2768.5552      0.69152855     263.10381      387.85871      9.482989     
       256   467.00494     -313.92175      150.45318     -464.37493     -2083.4491      2767.4889      0.69179498     264.26138      389.56914      9.5167654    
       257   468.83961     -314.81992      150.79716     -465.61708     -2174.0371      2766.4171      0.69206301     264.86556      390.4584       9.5413439    
       258   470.71553     -315.74766      150.81692     -466.56458     -2251.3594      2765.3395      0.6923327      264.90026      390.50286      9.5559949    
       259   472.5817      -316.66506      150.5097      -467.17476     -2313.8273      2764.2558      0.69260412     264.36065      389.69569      9.5599335    
       260   474.47817     -317.60621      149.87327     -467.47947     -2362.9339      2763.166       0.69287729     263.24281      388.03139      9.5524733    
       261   476.36063     -318.51249      148.9036      -467.41609     -2395.387       2762.0698      0.69315227     261.53964      385.49963      9.5331035    
       262   478.23305     -319.47138      147.59691     -467.06829     -2414.6483      2760.9672      0.69342908     259.24452      382.09067      9.5015192    
       263   480.17061     -320.43515      145.92651     -466.36166      7880.934       2759.8582      0.69370774     256.31058      377.73179      9.4633089    
       264   482.07986     -321.00012      145.39989     -466.40001     -9293.7412      2758.7724      0.69398076     255.38561      376.36458      9.4372535    
       265   483.98343     -321.74984      144.37108     -466.12092      7810.4866      2757.6603      0.69426061     253.57857      373.68734      9.3988619    
       266   485.8978      -322.15446      144.41428     -466.56874     -9338.6409      2756.5713      0.69453489     253.65444      373.81388      9.3722203    
       267   487.79825     -322.69577      143.90519     -466.60096      7696.041       2755.4559      0.69481604     252.76026      372.49882      9.3337674    
       268   489.72262     -322.16061      145.28722     -467.44783      715.968        2754.3632      0.69509169     255.18771      376.11696      9.3419063    
       269   491.62579     -321.95217      147.05206     -469.00423     -9446.2594      2753.273       0.6953669      258.28754      380.74714      9.3325896    
       270   493.48543     -322.86964      147.30506     -470.1747      -2567.89        2752.1563      0.69564907     258.73191      381.44091      9.2712298    
       271   495.35097     -322.9343       148.08807     -471.02237      7366.1217      2751.0327      0.6959332      260.10721      383.50601      9.2454431    
       272   497.20876     -322.64841      150.00205     -472.65047     -9630.8223      2749.9307      0.69621207     263.469        388.52437      9.2415723    
       273   499.07614     -323.62933      150.33427     -473.9636      -2693.7353      2748.8017      0.69649802     264.05253      389.42284      9.1860696    
       274   500.94504     -324.61501      150.33176     -474.94677     -2739.5361      2747.6655      0.69678603     264.04812      389.44291      9.1328105    
       275   502.84677     -325.54779      150.011       -475.5588      -2769.1957      2746.5221      0.69707612     263.48472      388.62654      9.0841338    
       276   504.74062     -325.67669      150.25609     -475.93278      7060.5185      2745.3713      0.69736832     263.91521      389.25824      9.1054711    
       277   506.64525     -324.0905       153.15904     -477.24954      1675.4427      2744.2412      0.6976555      269.01406      396.79383      9.2511727    
       278   508.51048     -323.31162      155.95761     -479.26923     -9823.5044      2743.1164      0.69794155     273.92957      404.07311      9.3623231    
       279   510.42686     -324.37963      156.55611     -480.93573     -2956.5522      2741.9642      0.69823484     274.98079      405.63152      9.3827428    
       280   512.38907     -325.42279      156.67675     -482.09955     -3034.3513      2740.8042      0.69853037     275.19269      405.93693      9.4043148    
       281   514.27501     -326.43331      156.2913      -482.72461     -3087.0286      2739.6361      0.69882821     274.51566      404.91686      9.4239598    
       282   516.24064     -326.73991      156.16867     -482.90858      8239.3402      2738.4597      0.69912839     274.30028      404.54271      9.5294846    
       283   518.12075     -325.47641      158.21739     -483.69379      1164.6899      2737.3075      0.69942269     277.89871      409.80236      9.7492483    
       284   520.00411     -325.01645      160.13185     -485.1483      -10235.498      2736.1591      0.69971625     281.26135      414.75416      9.8810358    
       285   521.91109     -326.09752      160.04687     -486.14439     -3191.2249      2734.9822      0.70001734     281.11209      414.52529      9.8932972    
       286   523.86077     -326.1013       160.6694      -486.77069      8240.4476      2733.7969      0.70032086     282.20552      416.11266      9.9817704    
       287   525.7884      -324.17585      163.96776     -488.14361      1149.725       2732.6355      0.70061849     287.99887      424.66166      10.17332     
       288   527.74318     -321.36341      168.86465     -490.22806      1155.0169      2731.478       0.7009154      296.59995      437.39269      10.380101    
       289   529.66372     -320.21297      172.67036     -492.88333     -10526.71       2730.3243      0.70121156     303.28444      447.3088       10.496898    
       290   531.63945     -319.58111      175.35771     -494.93882      8295.9058      2729.1415      0.70151547     308.0046       454.30357      10.594089    
       291   533.52603     -318.73274      178.48106     -497.21381     -10730.472      2727.9827      0.70181346     313.49056      462.43658      10.700232    
       292   535.46746     -318.74205      179.80726     -498.54931      8295.112       2726.7942      0.70211935     315.81994      465.87263      10.779869    
       293   537.35549     -318.52141      181.19467     -499.71608     -10827.594      2725.6297      0.70241931     318.25684      469.46842      10.860929    
       294   539.18536     -319.93995      179.85541     -499.79536     -3437.8063      2724.4354      0.70272724     315.90452      465.97679      10.823973    
       295   541.07656     -321.36485      177.46421     -498.82906     -3364.7854      2723.232       0.70303778     311.70453      459.73896      10.765275    
       296   542.99214     -323.5447       173.33417     -496.87886      8757.5374      2722.0197      0.70335087     304.45037      448.92779      10.7385      
       297   544.87952     -325.39073      169.61124     -495.00197     -10414.619      2720.8327      0.70365771     297.91129      439.18737      10.704245    
       298   546.78364     -326.72985      165.74648     -492.47633     -2897.7577      2719.6172      0.70397223     291.12308      429.11481      10.590819    
       299   548.69173     -329.30466      160.18636     -489.49102      11079.851      2718.3941      0.70428896     281.3571       414.58967      10.49575     
       300   550.56791     -331.40023      155.88628     -487.2865      -9629.1919      2717.2027      0.70459777     273.80427      403.36303      10.408549    
       301   552.51233     -332.62162      152.27429     -484.89591     -2328.3382      2715.985       0.70491367     267.46005      393.96333      10.274412    
       302   554.4605      -334.34762      148.03066     -482.37828      12056.944      2714.7614      0.70523139     260.00637      382.8913       10.173926    
       303   556.37436     -335.61906      145.54941     -481.16847     -9038.4362      2713.5722      0.70554046     255.64822      376.42436      10.101419    
       304   558.3487      -336.74962      143.23459     -479.9842      -1873.8529      2712.3583      0.70585621     251.58239      370.41312      9.9899545    
       305   560.24448     -337.78835      140.96557     -478.75392     -1765.546       2711.1398      0.70617344     247.597        364.51941      9.8834891    
       306   562.12951     -338.86352      138.73393     -477.59745     -1662.2708      2709.9171      0.70649207     243.67726      358.72133      9.7816618    
       307   564.04001     -339.84646      136.52889     -476.37535     -1556.5644      2708.6904      0.70681203     239.80426      352.9912       9.6834392    
       308   566.01453     -340.46415      134.65165     -475.1158       13514.437      2707.46        0.70713323     236.50701      348.09503      9.6355468    
       309   567.92904     -340.65385      134.40251     -475.05636     -8471.0899      2706.2678      0.70744474     236.06941      347.45396      9.6117297    
       310   569.86911     -341.60473      133.34316     -474.9479      -1281.0946      2705.0528      0.70776252     234.20873      344.71783      9.5310127    
       311   571.82132     -342.49443      132.18176     -474.67619     -1215.1032      2703.8348      0.70808135     232.1688       341.71555      9.4476647    
       312   573.76243     -343.31858      130.91467     -474.23325     -1136.6147      2702.614       0.70840117     229.94325      338.43791      9.3610426    
       313   575.71565     -344.15322      129.56878     -473.722       -1049.4049      2701.3908      0.70872195     227.57927      334.9553       9.2712738    
       314   577.65258     -344.88628      128.20029     -473.08657     -949.64624      2700.1653      0.7090436      225.1756       331.4146       9.1792349    
       315   579.61997     -345.64969      126.88787     -472.53757     -847.47488      2698.9379      0.70936607     222.87043      328.02125      9.0864269    
       316   581.56132     -346.42574      125.72155     -472.14729     -746.71076      2697.7087      0.70968927     220.82186      325.01018      8.9948649    
       317   583.5144      -347.14641      124.76711     -471.91351      14968.636      2696.4782      0.71001314     219.14544      322.53653      8.9391099    
       318   585.47058     -346.17912      127.2779      -473.45702      7640.1589      2695.2896      0.71032626     223.55548      329.10376      8.965869     
       319   587.35241     -345.18896      131.52585     -476.71482     -8005.1179      2694.1226      0.71063395     231.01674      340.22512      8.9903582    
       320   589.29282     -345.91527      134.13473     -480.05        -672.26445      2692.9342      0.71094755     235.59907      347.07424      8.9675037    
       321   591.16874     -346.60942      136.62581     -483.23523     -757.53522      2691.7445      0.71126176     239.97449      353.61031      8.9532333    
       322   593.0875      -347.34232      138.79071     -486.13303     -836.62887      2690.5534      0.71157663     243.77701      359.28831      8.9453841    
       323   595.03479     -348.05847      140.42996     -488.48843     -896.4763       2689.3607      0.71189222     246.65624      363.58683      8.9410716    
       324   596.94121     -348.8102       141.3772      -490.1874      -929.9717       2688.1661      0.71220858     248.32         366.07151      8.9369909    
       325   598.90565     -349.55887      141.52203     -491.08091     -927.76669      2686.9696      0.71252572     248.5744       366.4547       8.9298004    
       326   600.87978     -350.33703      140.82681     -491.16384     -887.176        2685.7712      0.71284366     247.35328      364.63917      8.916596     
       327   602.82794     -351.08663      139.33275     -490.41938     -805.16695      2684.571       0.71316235     244.72906      360.73397      8.8953381    
       328   604.75397     -351.80402      137.15423     -488.95825     -685.47113      2683.3692      0.71348175     240.90263      355.03934      8.8651176    
       329   606.72624     -352.48765      134.46389     -486.95154     -535.22876      2682.1662      0.71380176     236.17722      348.00756      8.8262742    
       330   608.73256     -354.26985      130.35561     -484.62546      9210.3686      2680.9624      0.71412227     228.96128      337.24717      8.811978     
       331   610.69338     -355.58188      127.93504     -483.51692     -8455.6336      2679.7843      0.71443621     224.70971      330.90055      8.816943     
       332   612.68794     -356.18053      126.32205     -482.50259     -84.452007      2678.5838      0.71475641     221.87661      326.6906       8.7817893    
       333   614.65161     -356.75058      124.96848     -481.71906      12.026607      2677.3837      0.71507678     219.49913      323.15953      8.7486521    
       334   616.57434     -357.36418      123.94896     -481.31314      87.797653      2676.1843      0.71539727     217.70842      320.50206      8.7194453    
       335   618.57632     -357.96673      123.29823     -481.26496      142.71275      2674.9858      0.71571781     216.56545      318.80848      8.6955487    
       336   620.5187      -358.56056      123.01257     -481.57313      175.67176      2673.7883      0.71603836     216.06371      318.06869      8.6777495    
       337   622.41831     -359.16257      123.05568     -482.21825      186.99061      2672.5919      0.7163589      216.13942      318.18742      8.6662502    
       338   624.36115     -359.70091      123.36757     -483.06848      182.90903      2671.3966      0.71667942     216.68724      319.00764      8.6607131    
       339   626.29422     -360.26752      123.87534     -484.14287      162.78028      2670.2024      0.71699993     217.57912      320.33864      8.6603864    
       340   628.23605     -360.84287      124.504       -485.34687      131.83863      2669.0094      0.71732043     218.6833       321.98435      8.6642688    
       341   630.18883     -361.39288      125.18588     -486.57876      95.909949      2667.8173      0.71764096     219.88099      323.76802      8.671288     
       342   632.14977     -361.9346       125.86725     -487.80185      58.085201      2666.6261      0.71796153     221.07777      325.54928      8.6804174    
       343   634.11595     -362.45023      126.51175     -488.96198      21.919941      2665.4357      0.71828218     222.20979      327.23329      8.6907631    
       344   636.05662     -362.99468      127.10045     -490.09513     -13.477233      2664.246       0.71860292     223.2438       328.77082      8.7015767    
       345   638.00514     -363.57043      127.62891     -491.19934     -47.86158       2663.0569      0.71892379     224.17201      330.15054      8.7122516    
       346   639.94359     -364.12167      128.10152     -492.22319     -78.607791      2661.8683      0.71924482     225.00212      331.38423      8.722262     
       347   641.89739     -364.61281      128.52459     -493.13741     -104.85306      2660.6801      0.71956601     225.74522      332.48865      8.7310937    
       348   643.82405     -365.13578      128.90081     -494.03659     -132.00209      2659.4922      0.7198874      226.40602      333.47109      8.7382977    
       349   645.77961     -365.61827      129.22477     -494.84303     -157.19547      2658.3047      0.720209       226.97503      334.31759      8.7434346    
       350   647.70584     -366.11416      129.48224     -495.59641     -183.15229      2657.1173      0.72053083     227.42728      334.99108      8.7461131    
       351   649.6238      -366.60713      129.65241     -496.25954     -208.79208      2655.9301      0.7208529      227.72616      335.43711      8.7460352    
       352   651.58189     -367.13228      129.71176     -496.84404     -235.14585      2654.743       0.72117525     227.83041      335.59418      8.7430037    
       353   653.60905     -367.61587      129.63965     -497.25552     -257.79518      2653.5559      0.72149788     227.70375      335.40819      8.7370004    
       354   655.55303     -368.09575      129.42251     -497.51827     -198.25876      2652.3687      0.72182081     227.32236      334.84352      8.728144     
       355   657.52236     -368.57007      129.057       -497.62707     -136.22672      2651.1817      0.722144       226.68036      333.89129      8.7166323    
       356   659.53713     -368.93442      128.69489     -497.62932      6822.0111      2649.9949      0.72246741     226.04434      332.93835      8.7243879    
       357   661.49158     -368.84633      129.76171     -498.60804     -8124.5891      2648.8269      0.72278598     227.91813      335.71488      8.7634138    
       358   663.48803     -369.33448      130.12404     -499.45851     -264.39266      2647.6379      0.72311056     228.55454      336.66307      8.7663192    
       359   665.49138     -369.78761      130.33192     -500.11953     -336.50962      2646.4489      0.72343545     228.91967      337.20765      8.766853     
       360   667.43492     -370.27706      130.38545     -500.66251     -408.24017      2645.2596      0.7237607      229.01369      337.34915      8.7644462    
       361   669.43253     -370.72981      130.29621     -501.02601     -475.49044      2644.0699      0.72408637     228.85695      337.11817      8.7586099    
       362   671.44697     -370.72591      130.57952     -501.30543      6187.2177      2642.8795      0.72441249     229.35456      337.85107      8.7778889    
       363   673.36804     -370.29692      132.29624     -502.59317     -8594.9345      2641.7062      0.72473424     232.36989      342.32733      8.8242125    
       364   675.32577     -370.78423      132.96635     -503.75059     -730.80977      2640.5108      0.72506235     233.54689      344.08259      8.8263238    
       365   677.2772      -371.27969      133.44455     -504.72424     -834.1376       2639.3141      0.7253911      234.38681      345.33696      8.8242332    
       366   679.23967     -371.78185      133.68981     -505.47166     -924.39779      2638.1158      0.72572058     234.8176       345.98298      8.8178101    
       367   681.20511     -372.30749      133.66438     -505.97186     -998.62528      2636.9158      0.72605085     234.77292      345.92168      8.8070799    
       368   683.16648     -372.81967      133.33877     -506.15844     -1051.6455      2635.7138      0.72638197     234.20102      345.07577      8.7921195    
       369   685.16211     -373.33413      132.69873     -506.03286     -1081.7813      2634.5096      0.72671397     233.07683      343.40783      8.7729902    
       370   687.15935     -373.86763      131.75185     -505.61947     -1088.7024      2633.3033      0.72704687     231.41369      340.93776      8.7497013    
       371   689.11877     -374.40082      130.53075     -504.93157     -1072.2471      2632.0948      0.72738069     229.26891      337.75111      8.7221712    
       372   691.04533     -374.89499      129.09151     -503.9865      -1032.6974      2630.8842      0.72771541     226.74097      333.9949       8.6902768    
       373   692.97062     -375.40279      127.50709     -502.90988     -976.64313      2629.6715      0.728051       223.95805      329.86043      8.6539411    
       374   694.89878     -375.92478      125.85828     -501.78306     -908.92899      2628.4569      0.72838742     221.06202      325.55937      8.613225     
       375   696.8602      -376.42219      124.22519     -500.64738     -832.75181      2627.2406      0.72872463     218.1936       321.30155      8.568422     
       376   698.8044      -376.94998      122.68181     -499.6318      -755.95438      2626.0228      0.72906257     215.48275      317.28058      8.5201683    
       377   700.7448      -377.43277      121.29362     -498.72639     -679.19465      2624.8037      0.72940118     213.04449      313.66757      8.4695174    
       378   702.68772     -377.9254       120.1163      -498.0417      -609.4382       2623.5836      0.72974041     210.9766       310.60771      8.4178771    
       379   704.59933     -378.44652      119.19526     -497.64178     -551.44386      2622.3625      0.73008021     209.35884      308.21917      8.3669452    
       380   706.54318     -378.92392      118.565       -497.48892     -504.90335      2621.1406      0.73042054     208.25183      306.59145      8.3186731    
       381   708.53267     -379.33851      118.24685     -497.58536     -471.38934      2619.9181      0.73076136     207.69302      305.77937      8.2751204    
       382   710.40925     -379.78383      118.24575     -498.02959     -457.621        2618.6951      0.73110266     207.6911       305.79492      8.2382754    
       383   712.3181      -380.25963      118.54773     -498.80736     -464.62325      2617.4716      0.73144441     208.22151      306.60056      8.2099274    
       384   714.22765     -380.67588      119.11739     -499.79327     -487.67032      2616.2475      0.73178663     209.22207      308.10284      8.1914336    
       385   716.1494      -381.12557      119.89727     -501.02284     -529.96933      2615.0229      0.73212933     210.59188      310.15082      8.1834957    
       386   718.00767     -381.60893      120.81084     -502.41978     -588.90488      2613.7976      0.73247254     212.19652      312.54393      8.1861227    
       387   719.98062     -382.03493      121.76722     -503.80215     -655.72958      2612.5714      0.73281631     213.87633      315.04432      8.1985209    
       388   721.90981     -382.4944       122.66904     -505.16343     -730.39044      2611.3443      0.73316068     215.46031      317.39761      8.2191515    
       389   723.88586     -382.95165      123.42193     -506.37358     -806.17476      2610.1159      0.73350571     216.78271      319.35753      8.2458527    
       390   725.83315     -383.37006      123.94348     -507.31354     -876.32961      2608.8862      0.73385146     217.6988       320.70946      8.2759218    
       391   727.7886      -383.78554      124.17229     -507.95782     -938.62608      2607.6549      0.73419797     218.10067      321.2939       8.3063892    
       392   729.74977     -384.2164       124.07417     -508.29057     -991.16999      2606.4219      0.7345453      217.92834      321.02279      8.3342907    
       393   731.66877     -384.68031      123.64436     -508.32467     -1033.5823      2605.187       0.73489347     217.17341      319.88501      8.3568591    
       394   733.59635     -385.10307      122.90594     -508.009       -1062.1786      2603.9502      0.73524253     215.87641      317.94223      8.3717155    
       395   735.59047     -385.54018      121.90584     -507.44602     -1081.4281      2602.7114      0.73559249     214.1198       315.31833      8.3771228    
       396   737.51719     -385.95323      120.70883     -506.66206     -1091.5719      2601.4705      0.73594337     212.01733      312.18353      8.3721602    
       397   739.45503     -386.36009      119.39096     -505.75105     -1096.4817      2600.2275      0.73629517     209.70258      308.73716      8.3568002    
       398   741.38372     -386.74205      118.03442     -504.77647     -1098.4166      2598.9824      0.7366479      207.31991      305.19422      8.3319193    
       399   743.3585      -387.06136      116.72393     -503.78529     -1098.5675      2597.7352      0.73700157     205.01812      301.77589      8.2991815    
       400   745.28703     -387.44527      115.54401     -502.98928     -1106.5346      2596.486       0.73735617     202.94566      298.70257      8.2608132    
       401   747.24769     -387.83995      114.57616     -502.41611     -1122.4845      2595.2346      0.73771171     201.24569      296.18663      8.2193454    
       402   749.17741     -388.22598      113.89346     -502.11944     -1148.2622      2593.9811      0.7380682      200.04658      294.41838      8.1772584    
       403   751.1002      -388.56763      113.55313     -502.12076     -1184.5269      2592.7254      0.73842566     199.4488       293.54666      8.1367062    
       404   753.04789     -388.90288      113.58814     -502.49102     -1234.9428      2591.4674      0.73878412     199.5103       293.65709      8.0993672    
       405   754.98399     -389.24941      113.99896     -503.24838     -1300.8444      2590.207       0.73914361     200.23188      294.75036      8.0662962    
       406   756.89617     -389.57303      114.74863     -504.32166     -1379.5634      2588.944       0.73950419     201.54862      296.7294       8.0378668    
       407   758.83322     -389.89017      115.76336     -505.65353     -1468.7463      2587.6783      0.73986592     203.33093      299.40097      8.0138211    
       408   760.79307     -390.2391       116.93927     -507.17837     -1565.7798      2586.4095      0.74022885     205.39635      302.49317      7.9933768    
       409   762.75908     -390.50837      118.15387     -508.66225     -1658.9944      2585.1376      0.74059305     207.52972      305.6856       7.9753014    
       410   764.7237      -390.82644      119.28085     -510.10729     -1748.5984      2583.8622      0.74095861     209.50918      308.64799      7.9579795    
       411   766.69104     -391.15655      120.20625     -511.3628      -1826.6126      2582.5832      0.74132558     211.13458      311.0826       7.9395728    
       412   768.62161     -391.44375      120.84262     -512.28637     -1885.251       2581.3003      0.74169402     212.25233      312.76117      7.9182011    
       413   770.60887     -391.74256      121.13917     -512.88173     -1924.4258      2580.0134      0.74206397     212.7732       313.55144      7.8921509    
       414   772.53923     -392.03623      121.08655     -513.12278     -1942.4302      2578.7224      0.74243547     212.68077      313.42954      7.8600941    
       415   774.48659     -392.23265      120.71643     -512.94908     -1936.1063      2577.4273      0.74280853     212.03069      312.47887      7.8213378    
       416   776.43477     -392.51473      120.09514     -512.60987     -1918.5269      2576.1281      0.74318314     210.93942      310.87321      7.7759205    
       417   778.37029     -392.79287      119.31319     -512.10606     -1890.5038      2574.8249      0.74355929     209.56598      308.84942      7.7246522    
       418   780.29969     -393.04756      118.47301     -511.52057     -1857.2048      2573.5177      0.74393697     208.09026      306.67512      7.6691392    
       419   782.25094     -393.3173       117.67519     -510.99249     -1826.9216      2572.2066      0.74431615     206.68895      304.61287      7.6115819    
       420   784.18526     -393.54626      117.00698     -510.55324     -1802.3687      2570.8918      0.74469681     205.51527      302.89006      7.5545197    
       421   786.10438     -393.78975      116.53428     -510.32403     -1790.7811      2569.5733      0.74507894     204.68501      301.67815      7.5005234    
       422   788.03691     -394.04803      116.29827     -510.34631     -1795.0322      2568.2511      0.74546252     204.27048      301.08389      7.4519223    
       423   789.97313     -394.2644       116.31594     -510.58034     -1813.4934      2566.9253      0.74584756     204.3015       301.15086      7.4105704    
       424   791.85154     -394.5143       116.58328     -511.09758     -1849.9036      2565.5957      0.74623408     204.77107      301.868        7.3776617    
       425   793.78764     -394.74055      117.08043     -511.82099     -1900.1205      2564.2624      0.7466221      205.64429      303.183        7.3536677    
       426   795.70132     -394.98146      117.77706     -512.75852     -1964.212       2562.9251      0.74701166     206.86787      305.01648      7.3383474    
       427   797.6376      -395.16318      118.6372      -513.80037     -2036.1252      2561.5838      0.74740281     208.37864      307.2746       7.3308028    
       428   799.53628     -395.41483      119.6227      -515.03753     -2119.8679      2560.2383      0.7477956      210.10962      309.85816      7.3295843    
       429   801.50827     -395.64525      120.6952      -516.34045     -2208.3597      2558.8884      0.7481901      211.99339      312.66746      7.3328627    
       430   803.49431     -395.87438      121.81563     -517.69001     -2300.1736      2557.5338      0.74858636     213.96136      315.60118      7.3385807    
       431   805.4307      -396.12001      122.94267     -519.06269     -2393.775       2556.1745      0.74898446     215.94094      318.55204      7.3446602    
       432   807.36138     -396.32933      124.03053     -520.35986     -2483.8179      2554.81        0.74938447     217.85169      321.40097      7.3491993    
       433   809.29546     -396.55902      125.02753     -521.58655     -2570.4251      2553.4403      0.74978645     219.60285      324.01332      7.3506266    
       434   811.19231     -396.77288      125.87724     -522.65011     -2648.5519      2552.0652      0.75019047     221.09531      326.24173      7.3478585    
       435   813.14755     -396.98914      126.52232     -523.51146     -2715.6894      2550.6844      0.75059658     222.22836      327.9362       7.3403684    
       436   815.06365     -397.28152      126.91113     -524.19266     -2772.401       2549.2978      0.75100484     222.91129      328.96134      7.3281845    
       437   816.96284     -397.50311      127.00588     -524.50899     -2808.7004      2547.9052      0.75141529     223.0777       329.21785      7.3118092    
       438   818.89639     -397.76535      126.79116     -524.55651     -2829.0163      2546.5067      0.75182796     222.70056      328.66493      7.2921387    
       439   820.79206     -398.01239      126.28062     -524.29301     -2830.6145      2545.1022      0.75224286     221.80383      327.33771      7.2703795    
       440   822.69438     -398.28076      125.51924     -523.8         -2817.2005      2543.6917      0.75266        220.46651      325.35341      7.2479246    
       441   824.61409     -398.5523       124.5806      -523.1329      -2791.5386      2542.2751      0.75307937     218.81785      322.90413      7.2262477    
       442   826.58493     -398.82795      123.55854     -522.38649     -2758.5395      2540.8527      0.75350095     217.02268      320.23512      7.2068153    
       443   828.54207     -399.10676      122.55444     -521.66119     -2723.4709      2539.4246      0.75392472     215.25903      317.61134      7.1909885    
       444   830.44416     -399.35298      121.66277     -521.01575     -2689.6013      2537.9907      0.75435066     213.69288      315.27985      7.1799675    
       445   832.36266     -399.62243      120.95878     -520.58121     -2664.0587      2536.5512      0.75477875     212.45636      313.43732      7.1748075    
       446   834.2463      -399.87753      120.49062     -520.36814     -2647.3485      2535.1063      0.75520896     211.63406      312.20949      7.1764127    
       447   836.18048     -400.15604      120.27855     -520.43459     -2642.4117      2533.6558      0.75564129     211.26157      311.6491       7.1855705    
       448   838.08815     -400.40179      120.32082     -520.72261     -2645.8019      2532.2         0.75607574     211.33582      311.75117      7.2029935    
       449   839.98758     -400.67165      120.60284     -521.27449     -2659.3641      2530.7387      0.7565123      211.83117      312.47718      7.2292781    
       450   841.89305     -400.94523      121.10613     -522.05136     -2680.9444      2529.272       0.756951       212.71517      313.77848      7.2648607    
       451   843.75673     -401.22755      121.81268     -523.04023     -2710.1119      2527.7998      0.75739185     213.95617      315.60777      7.3099161    
       452   845.69888     -401.48204      122.70272     -524.18476     -2744.4613      2526.322       0.75783488     215.51947      317.91338      7.3641737    
       453   847.59949     -401.76613      123.74809     -525.51422     -2786.564       2524.8387      0.7582801      217.35559      320.62193      7.4267427    
       454   849.5534      -402.08239      124.90503     -526.98742     -2835.2802      2523.3497      0.75872755     219.38769      323.61955      7.4960326    
       455   851.54099     -402.4342       126.11008     -528.54428     -2888.4478      2521.855       0.75917727     221.50429      326.74104      7.5697842    
       456   853.50544     -402.74729      127.28086     -530.02814     -2937.9912      2520.3543      0.7596293      223.56068      329.77187      7.6451652    
       457   855.43783     -403.08041      128.32199     -531.4024      -2981.9296      2518.8476      0.76008368     225.38936      332.46371      7.7189434    
       458   857.34385     -403.48726      129.13505     -532.62232     -3016.7256      2517.3349      0.76054044     226.81746      334.56034      7.787677     
       459   859.26051     -403.87671      129.63108     -533.50778     -3031.9717      2515.816       0.7609996      227.68869      335.83023      7.8479702    
       460   861.18273     -404.3036       129.74356     -534.04716     -3025.189       2514.2909      0.76146119     227.88625      336.10061      7.8968151    
       461   863.10077     -404.80206      129.43809     -534.24015     -2994.7035      2512.7597      0.7619252      227.34971      335.28249      7.9318232    
[...]
      7328   11326.784     -487.07959      103.51583     -590.59542     -1189.6458      2044.9035      0.93624711     181.81893      268.38581      5.8442364    
      7329   11328.557     -487.15274      103.90255     -591.05529     -1309.6767      2045.0906      0.93616144     182.49819      269.36754      5.907943     
      7330   11330.267     -487.19793      104.52728     -591.72521     -1445.4581      2045.2758      0.93607669     183.59548      270.96635      5.9850634    
      7331   11332.025     -487.25021      105.38424     -592.63445     -1596.7105      2045.4587      0.93599296     185.10068      273.16781      6.0742162    
      7332   11333.756     -487.23888      106.46407     -593.70295     -1756.4129      2045.6392      0.93591038     186.99733      275.94807      6.1740016    
      7333   11335.451     -487.23749      107.75457     -594.99206     -1936.2009      2045.817       0.93582905     189.264        279.27585      6.283046     
      7334   11337.175     -487.26481      109.23958     -596.50439     -2126.0095      2045.9918      0.9357491      191.87234      283.1095       6.4000109    
      7335   11338.916     -487.24695      110.89623     -598.14319     -2308.7376      2046.1633      0.93567068     194.78213      287.38968      6.5235709    
      7336   11340.64      -487.24346      112.69091     -599.93436     -2494.7312      2046.3312      0.9355939      197.93436      292.02902      6.6523242    
      7337   11342.381     -487.23558      114.57606     -601.81164     -2679.8399      2046.4952      0.93551892     201.24551      296.90368      6.7847183    
      7338   11344.112     -487.22429      116.48921     -603.7135      -2860.8072      2046.655       0.93544586     204.60584      301.85076      6.9190374    
      7339   11345.913     -487.15595      118.3549      -605.51085     -3030.1116      2046.8104      0.93537485     207.8828       306.67339      7.0534603    
      7340   11347.72      -487.14167      120.08908     -607.23075     -3190.8484      2046.961       0.93530603     210.92879      311.15225      7.1861187    
      7341   11349.483     -487.12692      121.60588     -608.7328      -3335.0889      2047.1066      0.93523949     213.59294      315.06313      7.3151753    
      7342   11351.24      -487.07427      122.82606     -609.90033     -3456.2893      2047.247       0.93517535     215.73612      318.19926      7.4389591    
      7343   11353.013     -487.03996      123.68523     -610.7252      -3554.6066      2047.382       0.9351137      217.24519      320.39257      7.555988     
      7344   11354.739     -487.02237      124.14168     -611.16405     -3627.6253      2047.5114      0.93505461     218.04692      321.53437      7.665035     
      7345   11356.499     -486.98484      124.18265     -611.16749     -3672.4147      2047.6351      0.93499813     218.11888      321.59166      7.7652208    
      7346   11358.289     -486.96371      123.82737     -610.79108     -3692.3801      2047.753       0.93494429     217.49484      320.61505      7.8560682    
      7347   11363.191     -486.9397       123.12675     -610.06645     -3689.4116      2047.8651      0.93489312     216.26426      318.73804      7.9375632    
      7348   11367.183     -486.94974      122.15969     -609.10943     -3670.6266      2047.9714      0.9348446      214.56568      316.16714      8.0101763    
      7349   11369.043     -486.90033      121.02687     -607.9272      -3636.011       2048.0719      0.93479872     212.57595      313.16573      8.0748893    
      7350   11370.67      -486.8839       119.84223     -606.72613     -3598.4923      2048.1666      0.93475546     210.49521      310.03176      8.1331048    
      7351   11372.159     -486.82869      118.72357     -605.55226     -3560.7073      2048.2558      0.93471479     208.53036      307.07313      8.1865178    
      7352   11373.702     -486.80805      117.78332     -604.59137     -3534.1765      2048.3392      0.93467669     206.87886      304.58356      8.2369889    
      7353   11375.33      -486.768        117.11953     -603.88753     -3521.6656      2048.4172      0.93464114     205.71295      302.81912      8.2863487    
      7354   11377.075     -486.7472       116.80863     -603.55583     -3530.1044      2048.4895      0.93460812     205.16688      301.97934      8.3362256    
      7355   11378.8       -486.71109      116.90027     -603.61136     -3559.9798      2048.5563      0.93457765     205.32785      302.19371      8.3878737    
      7356   11380.546     -486.62217      117.41548     -604.03765     -3609.4752      2048.6175      0.93454974     206.23278      303.51692      8.4421029    
      7357   11382.379     -486.61172      118.34768     -604.9594      -3686.6715      2048.673       0.93452444     207.87012      305.93157      8.4992586    
      7358   11384.18      -486.55212      119.66576     -606.21788     -3780.9329      2048.7226      0.93450179     210.18525      309.35618      8.5592543    
      7359   11385.949     -486.59207      121.31813     -607.9102      -3899.2072      2048.7663      0.93448187     213.08753      313.6557       8.6217042    
      7360   11387.689     -486.6041       123.23499     -609.83909     -4029.6937      2048.8038      0.93446477     216.45438      318.64752      8.6859896    
      7361   11389.446     -486.64602      125.32833     -611.97434     -4171.7378      2048.8349      0.93445057     220.13119      324.10138      8.751253     
      7362   11391.186     -486.66505      127.49025     -614.15529     -4316.814       2048.8594      0.93443939     223.92846      329.7351       8.8163103    
      7363   11392.927     -486.69957      129.59241     -616.29198     -4460.5748      2048.8771      0.93443132     227.62078      335.21309      8.8795851    
      7364   11394.669     -486.75066      131.48779     -618.23846     -4594.4269      2048.8877      0.93442648     230.94989      340.15107      8.9389396    
      7365   11396.395     -486.82051      133.01841     -619.83892     -4708.2021      2048.8911      0.93442495     233.63832      344.13637      8.9916193    
      7366   11398.123     -486.9085       134.03014     -620.93864     -4788.6434      2048.887       0.93442683     235.41537      346.7667       9.0343565    
      7367   11399.879     -486.99629      134.39226     -621.38855     -4822.5164      2048.8753      0.93443217     236.0514       347.70119      9.0635145    
      7368   11401.619     -487.11783      134.01941     -621.13724     -4805.3871      2048.8559      0.934441       235.39652      346.718        9.0754921    
      7369   11403.36      -487.3091       132.88991     -620.19901     -4735.9402      2048.8289      0.9344533      233.41263      343.76178      9.0672576    
      7370   11405.075     -487.47774      131.05359     -618.53133     -4608.3649      2048.7944      0.93446903     230.18725      338.96417      9.0367345    
      7371   11406.766     -487.65742      128.62902     -616.28644     -4430.0394      2048.7526      0.9344881      225.92864      332.63634      8.983108     
      7372   11408.491     -487.81042      125.79193     -613.60235     -4207.8651      2048.7038      0.93451037     220.94547      325.23855      8.907031     
      7373   11410.231     -488.04695      122.75675     -610.8037      -3962.1101      2048.6483      0.93453569     215.61437      317.3318       8.8105425    
      7374   11411.941     -488.23701      119.7545      -607.99151     -3699.0165      2048.5865      0.93456387     210.34112      309.52002      8.6967369    
      7375   11413.667     -488.47184      117.01017     -605.482       -3439.443       2048.5189      0.93459474     205.52087      302.391        8.5693525    
      7376   11415.423     -488.67823      114.72103     -603.39926     -3192.7018      2048.4458      0.93462809     201.50015      296.45983      8.4323393    
      7377   11417.149     -488.87444      113.03672     -601.91116     -2971.716       2048.3676      0.93466376     198.54177      292.11685      8.2893859    
      7378   11418.876     -489.07975      112.04409     -601.12384     -2786.1271      2048.2847      0.93470158     196.79827      289.58811      8.1436136    
      7379   11420.619     -489.31178      111.75811     -601.06989     -2641.1067      2048.1974      0.93474142     196.29597      288.91172      7.9973557    
      7380   11422.344     -489.51318      112.12174     -601.63492     -2532.6955      2048.1059      0.93478318     196.93467      289.93737      7.8521464    
      7381   11424.084     -489.75943      113.0145      -602.77393     -2461.5423      2048.0104      0.93482677     198.50273      292.3489       7.7087919    
      7382   11425.842     -490.0464       114.26925     -604.31564     -2419.8005      2047.911       0.93487215     200.70662      295.70814      7.5675374    
      7383   11427.602     -490.29974      115.69523     -605.99497     -2393.4809      2047.8077      0.93491928     203.21126      299.51511      7.4283839    
      7384   11429.344     -490.55587      117.10185     -607.65772     -2375.4782      2047.7007      0.93496815     205.68191      303.27031      7.2913328    
      7385   11431.115     -490.79674      118.31973     -609.11647     -2355.9283      2047.5899      0.93501875     207.82104      306.52965      7.1566038    
      7386   11432.831     -491.05929      119.21556     -610.27485     -2330.4644      2047.4754      0.93507105     209.3945       308.94346      7.0248029    
      7387   11434.639     -491.32657      119.69923     -611.0258      -2293.6468      2047.3572      0.93512505     210.24403      310.27502      6.8969877    
      7388   11440         -491.57884      119.72437     -611.30321     -2241.813       2047.2353      0.93518071     210.2882       310.40211      6.7746273    
      7389   11443.137     -491.87286      119.28587     -611.15873     -2178.094       2047.1099      0.935238       209.518        309.31038      6.6595188    
      7390   11445.027     -492.17225      118.41677     -610.58903     -2101.0817      2046.981       0.93529687     207.99149      307.08546      6.5536622    
      7391   11446.666     -492.45559      117.18462     -609.64021     -2012.117       2046.8489      0.93535727     205.82729      303.90339      6.4590385    
      7392   11448.21      -492.72433      115.68635     -608.41069     -1915.5935      2046.7135      0.93541913     203.19568      300.01731      6.3774836    
      7393   11449.803     -493.01499      114.03889     -607.05388     -1819.58        2046.5751      0.93548239     200.30201      295.73288      6.310554     
      7394   11451.424     -493.27033      112.36558     -605.63591     -1727.2031      2046.4338      0.93554697     197.36295      291.37285      6.259357     
      7395   11453.072     -493.56428      110.78148     -604.34577     -1649.5015      2046.2898      0.93561281     194.58059      287.23854      6.2243679    
      7396   11454.788     -493.85978      109.38077     -603.24055     -1589.554       2046.1432      0.93567986     192.12033      283.5769       6.2053022    
      7397   11456.486     -494.11951      108.22835     -602.34785     -1450.6868      2045.994       0.93574806     190.09617      280.55858      6.2010898    
      7398   11458.181     -494.45256      107.35454     -601.8071      -1342.2654      2045.8426      0.93581732     188.56137      278.26402      6.2098039    
      7399   11459.923     -494.71198      106.75486     -601.46684     -1347.6872      2045.6891      0.93588757     187.50807      276.68281      6.2287873    
      7400   11461.665     -495.00779      106.39417     -601.40196     -1373.5196      2045.5334      0.9359588      186.87455      275.72443      6.254869     
      7401   11463.375     -495.31871      106.21452     -601.53323     -1413.5791      2045.3755      0.93603103     186.559        275.2387       6.2846194    
      7402   11465.149     -495.60867      106.14548     -601.75415     -1460.1737      2045.2154      0.9361043      186.43774      275.04276      6.3146281    
      7403   11466.922     -495.87804      106.11567     -601.99372     -1507.9374      2045.053       0.93617864     186.38539      274.95102      6.3418399    
      7404   11468.631     -496.12324      106.06222     -602.18546     -1551.5356      2044.8882      0.93625408     186.2915       274.79995      6.3637899    
      7405   11470.373     -496.41978      105.93693     -602.35671     -1592.1134      2044.721       0.93633066     186.07144      274.46412      6.3787285    
      7406   11472.084     -496.6744       105.70984     -602.38423     -1621.2272      2044.5512      0.9364084      185.67256      273.86539      6.3857796    
      7407   11473.889     -496.92351      105.36916     -602.29268     -1639.9815      2044.3789      0.93648733     185.07419      272.97292      6.3849585    
      7408   11475.611     -497.16757      104.91896     -602.08653     -1648.2341      2044.204       0.93656746     184.28344      271.79692      6.3770469    
      7409   11477.36      -497.4231       104.37645     -601.79954     -1647.8282      2044.0265      0.9366488      183.33055      270.38182      6.3634622    
      7410   11479.13      -497.65458      103.76974     -601.42431     -1638.1891      2043.8464      0.93673135     182.2649       268.80035      6.346124     
      7411   11480.886     -497.89742      103.13498     -601.0324      -1623.7215      2043.6636      0.9368151      181.15         267.14615      6.3272282    
      7412   11482.642     -498.15173      102.51318     -600.66491     -1607.3525      2043.4784      0.93690004     180.05784      265.52554      6.3090224    
      7413   11484.408     -498.36167      101.94632     -600.30799     -1588.6032      2043.2905      0.93698616     179.06218      264.04754      6.2936165    
      7414   11486.218     -498.61966      101.47323     -600.09289     -1576.4016      2043.1002      0.93707345     178.23123      262.81299      6.2828455    
      7415   11487.996     -498.81485      101.12554     -599.94039     -1566.4474      2042.9074      0.93716189     177.62054      261.90408      6.278136     
      7416   11489.867     -499.00411      100.92493     -599.92904     -1564.5532      2042.7121      0.93725149     177.26818      261.37718      6.2803794    
      7417   11491.72      -499.18586      100.88381     -600.06968     -1571.8495      2042.5143      0.93734224     177.19596      261.26461      6.2899803    
      7418   11493.52      -499.37743      101.0075      -600.38493     -1589.9499      2042.3141      0.93743415     177.41322      261.58034      6.3068922    
      7419   11495.278     -499.56221      101.29652     -600.85873     -1617.6808      2042.1113      0.93752722     177.92086      262.32598      6.3306063    
      7420   11497.114     -499.73907      101.74863     -601.4877      -1654.5547      2041.906       0.93762149     178.71495      263.49611      6.3602196    
      7421   11498.964     -499.87246      102.35896     -602.23141     -1697.6843      2041.6981      0.93771698     179.78696      265.07859      6.3945232    
      7422   11500.72      -500.01697      103.1178      -603.13477     -1749.6758      2041.4875      0.93781371     181.11981      267.04869      6.4320621    
      7423   11502.624     -500.17429      104.00713     -604.18143     -1809.6305      2041.2741      0.93791174     182.68187      269.36         6.471199     
      7424   11504.589     -500.32763      104.99789     -605.32552     -1874.6312      2041.0579      0.9380111      184.42207      271.93721      6.5102053    
      7425   11506.535     -500.49362      106.04935     -606.54297     -1943.7541      2040.8387      0.93811183     186.26889      274.67445      6.5473384    
      7426   11508.339     -500.65613      107.11225     -607.76839     -1970.8215      2040.6165      0.938214       188.13582      277.44342      6.5809901    
      7427   11510.126     -500.7957       108.13415     -608.92986     -2000.2772      2040.3911      0.93831762     189.93072      280.10736      6.609778     
      7428   11512.133     -500.93117      109.06611     -609.99728     -2069.3539      2040.1626      0.93842271     191.56764      282.53852      6.6326519    
      7429   11518.253     -501.02646      109.86896     -610.89542     -2129.9545      2039.9309      0.93852932     192.9778       284.63453      6.6490432    
      7430   11520.699     -501.17417      110.51655     -611.69072     -2187.1707      2039.6958      0.9386375      194.11525      286.3269       6.6589019    
      7431   11522.517     -501.33784      110.99638     -612.33423     -2238.2102      2039.4572      0.93874729     194.95805      287.58261      6.6627006    
      7432   11524.048     -501.46326      111.30831     -612.77157     -2279.6264      2039.2152      0.93885873     195.50593      288.40083      6.6613637    
      7433   11525.544     -501.58731      111.4626      -613.04992     -2314.0608      2038.9695      0.93897185     195.77693      288.80782      6.6561359    
      7434   11527.071     -501.69226      111.47869     -613.17095     -2340.8209      2038.7202      0.93908667     195.80518      288.85381      6.6484754    
      7435   11528.638     -501.8321       111.38376     -613.21586     -2364.0279      2038.4672      0.93920321     195.63845      288.60932      6.639858     
      7436   11530.303     -501.98835      111.21195     -613.2003      -2383.8073      2038.2105      0.9393215      195.33668      288.16312      6.631652     
      7437   11532.013     -502.10659      111.00335     -613.10994     -2398.28        2037.9501      0.93944154     194.97029      287.61969      6.6250712    
      7438   11533.724     -502.20594      110.80155     -613.00749     -2410.6786      2037.6858      0.93956336     194.61583      287.09274      6.6211165    
      7439   11535.433     -502.33945      110.64939     -612.98883     -2427.2136      2037.4178      0.93968695     194.34856      286.69425      6.6204995    
      7440   11537.269     -502.43677      110.58351     -613.02028     -2445.3633      2037.146       0.93981233     194.23286      286.52008      6.6235359    
      7441   11539.014     -502.53191      110.62944     -613.16135     -2468.8502      2036.8704      0.93993952     194.31353      286.63717      6.6300967    
      7442   11540.756     -502.70072      110.7974      -613.49813     -2503.703       2036.5908      0.94006853     194.60855      287.07268      6.6395215    
      7443   11542.466     -502.83254      111.08065     -613.91319     -2542.0411      2036.3074      0.94019939     195.10605      287.8095       6.6506286    
      7444   11544.192     -502.94617      111.45582     -614.402       -2583.6376      2036.0199      0.94033212     195.76502      288.78722      6.6617893    
      7445   11545.918     -503.07744      111.88502     -614.96246     -2628.275       2035.7284      0.94046677     196.51887      289.90748      6.6710523    
      7446   11547.612     -503.24541      112.31983     -615.56525     -2673.8693      2035.4328      0.94060336     197.2826       291.04443      6.6764031    
      7447   11549.355     -503.37751      112.70616     -616.08367     -2711.9662      2035.133       0.94074192     197.96115      292.05714      6.676033     
      7448   11551.049     -503.49092      112.98912     -616.48004     -2740.1717      2034.829       0.94088249     198.45815      292.80249      6.6685657    
      7449   11552.76      -503.62326      113.11877     -616.74203     -2757.2228      2034.5206      0.94102509     198.68588      293.14993      6.6533016    
      7450   11554.471     -503.71885      113.0561      -616.77495     -2756.4467      2034.208       0.94116973     198.5758       292.99712      6.6304034    
