ITEM: TIMESTEP
0
ITEM: NUMBER OF ATOMS
3
ITEM: BOX BOUNDS pp pp pp
-6.0000000000000000e+00 6.0000000000000000e+00
-6.0000000000000000e+00 6.0000000000000000e+00
-6.0000000000000000e+00 6.0000000000000000e+00
ITEM: ATOMS id type x y z
    1   1    0.00000000    0.00000000   -2.50000000
    2   2    1.50000000    0.00000000   -2.40000000
    3   3    0.00000000    0.00000000    2.50000000
ITEM: TIMESTEP
1
ITEM: NUMBER OF ATOMS
3
ITEM: BOX BOUNDS pp pp pp
-6.0000000000000000e+00 6.0000000000000000e+00
-6.0000000000000000e+00 6.0000000000000000e+00
-6.0000000000000000e+00 6.0000000000000000e+00
ITEM: ATOMS id type x y z
    1   1    0.00000000    0.00000000   -2.50000000
    2   2    0.00000000    0.00000000   -1.41891592
    3   3    0.00000000    0.00000000    2.50000000
